/*--------------------------------*- C++ -*----------------------------------*\
| =========                 |                                                 |
| \\      /  F ield         | OpenFOAM: The Open Source CFD Toolbox           |
|  \\    /   O peration     | Version:  2212                                  |
|   \\  /    A nd           | Website:  www.openfoam.com                      |
|    \\/     M anipulation  |                                                 |
\*---------------------------------------------------------------------------*/
FoamFile
{
    version     2.0;
    format      ascii;
    arch        "LSB;label=32;scalar=64";
    class       volScalarField;
    location    "2000";
    object      alphat;
}
// * * * * * * * * * * * * * * * * * * * * * * * * * * * * * * * * * * * * * //

dimensions      [1 -1 -1 0 0 0 0];

internalField   nonuniform List<scalar> 
96000
(
0.002878557
0.00233155
0.00222059
0.002275266
0.002325398
0.002377485
0.002457358
0.002523263
0.002552622
0.00254035
0.002485089
0.002393986
0.002292462
0.002235203
0.002265594
0.00229943
0.002298281
0.002290938
0.002278893
0.002259193
0.00222855
0.002183664
0.002170655
0.002170241
0.002152669
0.002209012
0.002294352
0.002333367
0.002318209
0.002248614
0.002189376
0.002168523
0.002193331
0.002246067
0.002307843
0.002337335
0.002325118
0.002265737
0.002184054
0.002048025
0.00227044
0.00220964
0.002227152
0.002308719
0.002372238
0.002437139
0.002525042
0.002581647
0.002588165
0.0025505
0.002481908
0.002395355
0.002308025
0.002240258
0.002221768
0.002231976
0.002245731
0.002273186
0.002281443
0.002267765
0.002243958
0.002208549
0.002211995
0.002216556
0.002165678
0.002205754
0.002280824
0.002312218
0.002300054
0.002265052
0.002231028
0.002217356
0.002227473
0.00224413
0.002259029
0.002256038
0.00223319
0.002200199
0.002184535
0.002162588
0.002145334
0.002201882
0.002237098
0.002308065
0.002367783
0.002417429
0.002477667
0.002518474
0.00252269
0.00249264
0.002438394
0.002367588
0.002288711
0.002216553
0.002180263
0.002174461
0.00218395
0.002207023
0.002217152
0.002212401
0.002202285
0.002184118
0.002199151
0.002219528
0.002183408
0.002118203
0.00222593
0.002323979
0.002358036
0.002352904
0.002330598
0.002316487
0.002325351
0.002338873
0.002336767
0.002309329
0.002260123
0.002202359
0.002168416
0.002156962
0.002147157
0.002213641
0.002251381
0.002311612
0.002353472
0.002370645
0.002398991
0.00243152
0.002442456
0.002426893
0.002387678
0.002329028
0.002258465
0.002190858
0.00214902
0.002146728
0.002160105
0.00217166
0.00216932
0.002158097
0.002152483
0.002154385
0.002182425
0.002215207
0.002196834
0.002139545
0.002187018
0.002324578
0.002407505
0.002430634
0.002421659
0.002408747
0.002413666
0.002421922
0.002409107
0.002363285
0.002296555
0.002224357
0.002176314
0.00215129
0.002180916
0.002215779
0.002251826
0.002309091
0.002337531
0.002332242
0.002332045
0.002354195
0.002373465
0.002369915
0.002342751
0.002295854
0.002237169
0.002179593
0.002138954
0.002132689
0.002138973
0.002134741
0.002113032
0.002095326
0.002100838
0.002126331
0.002169992
0.002213889
0.002225784
0.002204807
0.002203127
0.002315417
0.002416092
0.002457911
0.002458691
0.002450776
0.002456248
0.002462762
0.002447732
0.002400456
0.002340394
0.002272305
0.002216088
0.002163641
0.002267218
0.002248225
0.00226274
0.002311083
0.002328747
0.002302363
0.002273416
0.002277801
0.002303092
0.002315186
0.00230398
0.00226986
0.002222357
0.002173898
0.002135902
0.002119654
0.00211145
0.002091641
0.002054286
0.002033307
0.002051602
0.002098887
0.002155994
0.002208505
0.002245112
0.002263785
0.002275207
0.002318414
0.00239934
0.002438782
0.002446821
0.002442076
0.002444864
0.002447461
0.002436582
0.002406516
0.00237161
0.002328743
0.002289925
0.002220405
0.002361909
0.002318763
0.002324078
0.002345379
0.002335212
0.002291154
0.002238021
0.002209033
0.002224136
0.002251652
0.002260037
0.002242505
0.002205256
0.002162409
0.002125003
0.002099317
0.002079039
0.002049328
0.002010581
0.001989602
0.002013465
0.002073082
0.002137357
0.002196467
0.002250733
0.002295461
0.002328488
0.002348106
0.002366138
0.002379457
0.002380644
0.002377614
0.002376552
0.002381305
0.002389052
0.002388407
0.002392127
0.002389406
0.002375348
0.002305794
0.002369215
0.00230498
0.002331292
0.002366981
0.002364023
0.002317074
0.002238609
0.002171973
0.002155152
0.002178717
0.002199347
0.002197634
0.002173685
0.002136439
0.002097646
0.002063159
0.002035268
0.0020098
0.001983103
0.001965745
0.001986959
0.00204548
0.002111882
0.002176863
0.002240092
0.002294897
0.002337628
0.002359617
0.002361699
0.002353282
0.002335296
0.002313958
0.002297809
0.002299671
0.002322265
0.002359328
0.002411677
0.002449639
0.002459197
0.002391267
0.002286635
0.002240263
0.002290988
0.002336305
0.002358099
0.002336522
0.002273213
0.002184568
0.002116423
0.002108587
0.002125955
0.002131745
0.002121856
0.002094768
0.00205891
0.002020726
0.001987268
0.001974026
0.001960927
0.001954469
0.001972225
0.002019949
0.002081039
0.002145816
0.002208781
0.002262507
0.002300211
0.002319734
0.002318182
0.002303454
0.002281378
0.002254275
0.002230121
0.002228444
0.002264444
0.002338885
0.002419621
0.002488221
0.002518426
0.002449823
0.002209987
0.002186473
0.002246616
0.002295122
0.00232685
0.002332295
0.002302149
0.002230594
0.00213126
0.002065582
0.002053903
0.002057787
0.002056655
0.002042536
0.002017416
0.001987756
0.001960677
0.001949265
0.001943304
0.001946797
0.001963055
0.002001436
0.002049631
0.002104262
0.00215752
0.002200871
0.002226517
0.002231746
0.00222222
0.002206687
0.00219043
0.002178721
0.002179948
0.002203272
0.002249895
0.002313402
0.002396631
0.002480249
0.002518685
0.00245864
0.002105784
0.002159164
0.0022159
0.002261927
0.002300075
0.002321672
0.002316373
0.002271548
0.002181396
0.002068305
0.002008654
0.001994761
0.001991855
0.001987133
0.001973854
0.001956823
0.001939154
0.001928059
0.001923519
0.001932706
0.001954106
0.001987749
0.002021173
0.002058483
0.002093679
0.002118515
0.002125002
0.002112358
0.002091751
0.002080497
0.002083411
0.002104655
0.002151512
0.002225523
0.002318499
0.002411584
0.002488444
0.002531491
0.002532947
0.002431141
0.00211071
0.002173804
0.002198
0.00223313
0.002276729
0.002310439
0.002320436
0.002293173
0.002217359
0.002101104
0.002000785
0.001956626
0.001940566
0.001931089
0.001923494
0.001916517
0.001909541
0.001904425
0.001903369
0.001914114
0.001939677
0.001969489
0.001990093
0.002009481
0.002024204
0.002027185
0.002011903
0.001982563
0.001961818
0.001973338
0.00201393
0.00207769
0.002163098
0.002267788
0.002386449
0.002499615
0.002586608
0.002624904
0.002599368
0.002454488
0.002176799
0.002204096
0.002183127
0.002211057
0.002259814
0.002298181
0.002312128
0.002291581
0.002225079
0.002116561
0.002004083
0.001942073
0.00190796
0.001887082
0.001871425
0.001867105
0.001869508
0.001875501
0.001883109
0.001895803
0.001919421
0.001941768
0.001952442
0.001957174
0.001955195
0.001940371
0.001911027
0.001885903
0.001884768
0.001929579
0.002004875
0.00208982
0.002184415
0.00229037
0.002406575
0.002521478
0.002620363
0.002667072
0.002633678
0.002484818
0.00221268
0.002222486
0.002180611
0.002210698
0.002260586
0.002296097
0.002304409
0.002279337
0.002213242
0.002108646
0.001994435
0.001929574
0.001885842
0.00185448
0.001831424
0.001823983
0.001829162
0.001840019
0.001855044
0.001873114
0.001893492
0.001908591
0.001911925
0.001905112
0.001891763
0.00187173
0.001858154
0.001859798
0.001884742
0.00194148
0.002019337
0.002099665
0.002188172
0.00228709
0.002395296
0.002507152
0.00260659
0.002651005
0.002611683
0.002478366
0.002219001
0.002220555
0.00218574
0.002221859
0.002269343
0.002297925
0.00229627
0.002261157
0.002190714
0.002084496
0.001967344
0.001906051
0.001870394
0.001837873
0.001805957
0.001792749
0.001797578
0.001809823
0.001825808
0.001848629
0.001869233
0.001880165
0.001878082
0.001861045
0.00184462
0.001841983
0.001856758
0.001879292
0.001913491
0.001964159
0.002025544
0.002094983
0.002176723
0.002269943
0.002374511
0.002485247
0.002578532
0.002617622
0.002578968
0.002458241
0.002212664
0.00221168
0.002189397
0.002229492
0.002271765
0.002290787
0.002277945
0.002235014
0.002161741
0.002058501
0.001949136
0.001895531
0.001879354
0.001854602
0.00180722
0.001779411
0.001780765
0.001791556
0.001807566
0.001832165
0.001853794
0.001863002
0.001858472
0.001832951
0.001822659
0.001837651
0.001865484
0.001895973
0.001934257
0.001975786
0.002021828
0.002084208
0.002162081
0.002253828
0.002358797
0.002468471
0.002554681
0.002590819
0.002552822
0.002443614
0.002196196
0.002194162
0.002183623
0.002225026
0.002259441
0.002266627
0.002243718
0.002197151
0.002124382
0.00203355
0.001949321
0.00189811
0.001876418
0.001860148
0.001822057
0.001790123
0.001781353
0.001786326
0.001799998
0.001824432
0.001844638
0.001852492
0.001847559
0.001814911
0.001810718
0.001836574
0.001871606
0.001907482
0.001944824
0.001977957
0.002018144
0.002077128
0.002154266
0.002247937
0.002354107
0.002459638
0.002537914
0.002564237
0.002524027
0.002431682
0.002161195
0.002157055
0.002157319
0.002197939
0.002224297
0.002220611
0.002192483
0.002144668
0.002079043
0.002010145
0.001950889
0.001904193
0.001872044
0.001850351
0.001828363
0.001808105
0.001795332
0.00179404
0.001805595
0.00182214
0.001836323
0.001838626
0.001822795
0.001797914
0.001813507
0.001851902
0.001889984
0.001922272
0.001951867
0.001982523
0.002022411
0.0020808
0.002159884
0.002255676
0.002359778
0.002456813
0.002518893
0.002532638
0.00249728
0.002427842
0.00210979
0.002102324
0.002109301
0.002145598
0.002167304
0.002159483
0.002129519
0.002088153
0.002042184
0.001999164
0.001953355
0.001910713
0.001877811
0.001854083
0.001836274
0.001822298
0.001813879
0.001809228
0.001814018
0.001827023
0.001840386
0.001844835
0.001829627
0.001816008
0.001838406
0.001881722
0.00191748
0.00194575
0.001971127
0.002000627
0.002041429
0.002101201
0.002181032
0.002274681
0.002370597
0.00245103
0.002497253
0.002508841
0.002500646
0.002446845
0.002054079
0.002058831
0.002060589
0.002088747
0.002104532
0.002096036
0.002076451
0.002054103
0.002030297
0.00200091
0.001962281
0.001921165
0.001887493
0.001863421
0.001847291
0.001835696
0.001828227
0.001822448
0.001825161
0.001837881
0.001858139
0.001867658
0.001856387
0.001852799
0.001877056
0.001912549
0.001942851
0.001971221
0.001999573
0.002033904
0.002079999
0.002142395
0.002218657
0.002302972
0.002385739
0.002456218
0.00250657
0.002536769
0.002560717
0.002497856
0.00201421
0.002038457
0.002047787
0.002067601
0.002070624
0.002062782
0.002056057
0.002047537
0.002032356
0.002007643
0.001972469
0.001932697
0.001897271
0.001873439
0.001856526
0.001846844
0.001841049
0.001836593
0.001839157
0.00185385
0.001876114
0.001885463
0.001884597
0.001893878
0.001914651
0.001935567
0.001958529
0.001989827
0.002027977
0.002074687
0.002131853
0.002198777
0.002272466
0.0023506
0.002430471
0.002507066
0.002574404
0.002622873
0.002662538
0.002576682
0.001999672
0.002032532
0.002043059
0.002055139
0.002057531
0.00205704
0.002059631
0.002054721
0.002039442
0.002013817
0.001979748
0.00194032
0.001904144
0.001878152
0.001863749
0.001856496
0.001852371
0.001850462
0.001852007
0.001864703
0.00188278
0.001897281
0.00191179
0.001931508
0.001943551
0.00195023
0.001968459
0.002006443
0.002057419
0.002118576
0.002188908
0.002264257
0.002343075
0.002427062
0.002516523
0.002602975
0.002676811
0.002726084
0.002764874
0.00266737
0.002002327
0.002043611
0.002055745
0.002060546
0.002066
0.002067522
0.002063752
0.002050323
0.002030679
0.002007174
0.001980286
0.001948755
0.001914955
0.001893571
0.001883918
0.001872872
0.001863877
0.001858867
0.001860324
0.001871624
0.001891558
0.001915632
0.001938973
0.001955789
0.00196018
0.001963912
0.001983468
0.00202956
0.002091471
0.002165003
0.002250122
0.002339373
0.002432277
0.002528904
0.002624467
0.002706737
0.002768261
0.002798519
0.002817938
0.002741995
0.002037334
0.002075827
0.002082849
0.002080269
0.002080347
0.002071968
0.00205617
0.002035535
0.002018173
0.002003425
0.001987386
0.001965833
0.001941481
0.001924606
0.001911999
0.00189691
0.00188115
0.001873683
0.001878975
0.001897989
0.001921478
0.001943144
0.001957903
0.001967327
0.001973143
0.001981826
0.002007703
0.002059368
0.002128096
0.002217244
0.002320722
0.002427016
0.002533444
0.002633508
0.002718693
0.002781614
0.002814543
0.002806416
0.002795874
0.002769112
0.002091207
0.002114421
0.002117847
0.002110777
0.002103656
0.002083255
0.002060166
0.002043245
0.00203668
0.002031373
0.002020725
0.002002589
0.001982422
0.001969112
0.001956787
0.001939945
0.001920825
0.001912896
0.001921291
0.001941673
0.001959569
0.001969611
0.001971931
0.001978111
0.001990958
0.002009926
0.002041882
0.002092441
0.002173074
0.002286779
0.002406545
0.0025218
0.002626032
0.002712725
0.002777182
0.002812749
0.002809925
0.002768055
0.00272718
0.002739446
0.002153017
0.002162956
0.00216375
0.002155398
0.002141188
0.002112907
0.002090402
0.002081953
0.00208294
0.002081134
0.00207123
0.002054761
0.002040278
0.002028957
0.0020169
0.002000882
0.001983414
0.001973416
0.001978634
0.001993338
0.002001137
0.001998322
0.001991988
0.001998535
0.002022478
0.002056056
0.002094563
0.002152655
0.002257339
0.002380809
0.002499692
0.002605949
0.002694612
0.002760981
0.002800232
0.002805819
0.002772398
0.002704078
0.002640374
0.002669571
0.002224669
0.002233966
0.002234794
0.002228093
0.002208549
0.002173845
0.002144971
0.00213118
0.002127779
0.002123103
0.002113237
0.002100016
0.002089094
0.002080952
0.002071922
0.002059116
0.002044882
0.002035917
0.002038125
0.00204543
0.002045462
0.002037375
0.002030214
0.002041775
0.002079853
0.002132432
0.002188908
0.002266862
0.002370204
0.002480677
0.002584349
0.002672822
0.002740519
0.002782912
0.002795152
0.002773597
0.002714901
0.002627566
0.002549646
0.002580118
0.002293243
0.00231787
0.002317794
0.002311547
0.002278527
0.002229047
0.002179031
0.002143756
0.002129633
0.002123303
0.00211503
0.002107109
0.002104613
0.002105142
0.002104403
0.002101039
0.002095215
0.00209102
0.00209236
0.002095855
0.002096292
0.002093986
0.002096245
0.002118633
0.002170722
0.002240847
0.002315157
0.002395667
0.002483769
0.002573822
0.00265658
0.002723356
0.002767573
0.002784714
0.002771336
0.002725597
0.002646659
0.002547611
0.002464887
0.002494246
0.002337512
0.002394777
0.002376504
0.002349458
0.00229194
0.002220854
0.002147998
0.002094836
0.002079429
0.002083554
0.002086431
0.002089864
0.002097297
0.002106502
0.002116267
0.00212407
0.002129922
0.00213446
0.002139266
0.002145535
0.002155084
0.002169025
0.002189825
0.002226353
0.002286474
0.002362253
0.00243922
0.002512623
0.002584908
0.002654395
0.002715084
0.00275911
0.002779795
0.002772739
0.002735755
0.0026692
0.002575031
0.002470493
0.00239017
0.00242099
0.002322432
0.002406782
0.002356753
0.002302859
0.002231635
0.002156763
0.002081537
0.002034825
0.002045197
0.00208508
0.002117008
0.002137437
0.002147944
0.002145653
0.002137467
0.002139709
0.002149948
0.002163291
0.002177296
0.002193859
0.002220087
0.002257466
0.002301115
0.002350676
0.00241099
0.002480727
0.002550534
0.002614264
0.002672125
0.002723186
0.002762988
0.002784778
0.002782473
0.002752484
0.002693985
0.002609548
0.00250393
0.002397906
0.0023242
0.002357428
0.002258055
0.002332993
0.002268301
0.002216226
0.00217693
0.002152735
0.00214389
0.002156486
0.002195994
0.002239624
0.002268343
0.002278499
0.002270139
0.00224487
0.002211195
0.002180325
0.002165808
0.00217572
0.002200884
0.002235526
0.002284998
0.002349379
0.002416342
0.002476708
0.002533018
0.002591069
0.002649533
0.00270218
0.002747057
0.002782237
0.002803313
0.002804458
0.002780489
0.002729
0.00265088
0.002550792
0.00243582
0.00232936
0.00226271
0.002302215
0.002184037
0.002229969
0.002216828
0.002247188
0.002293739
0.002323803
0.00233507
0.002347624
0.002377303
0.002409623
0.002433271
0.002435196
0.002406285
0.002350749
0.002291106
0.002238584
0.002188499
0.002168592
0.002201051
0.002261166
0.002341258
0.002435021
0.002524908
0.00259519
0.002647154
0.002692522
0.002737665
0.002779294
0.002813215
0.002835054
0.002839673
0.00282184
0.002777734
0.002706371
0.002610471
0.002496448
0.002372698
0.002264186
0.002200186
0.002243155
0.00220784
0.002303222
0.002347683
0.002411672
0.002474771
0.002504137
0.002506168
0.002501706
0.002508815
0.002524421
0.002542372
0.002544999
0.002512722
0.002437088
0.002348381
0.002287008
0.002226194
0.002155432
0.002173899
0.002263497
0.002383015
0.002511024
0.002624886
0.002705816
0.002754273
0.002787312
0.002818593
0.002848533
0.002871823
0.002881632
0.002870784
0.002835093
0.00277242
0.002683316
0.002572305
0.002447164
0.002316935
0.002206938
0.002145378
0.002189629
0.002265264
0.002412542
0.002476986
0.002535579
0.00258289
0.00259752
0.00258657
0.002565984
0.002557299
0.002561019
0.002573283
0.002580055
0.002561504
0.00249161
0.002379811
0.002304059
0.002256814
0.002176163
0.002133947
0.002244596
0.002409265
0.002576547
0.002715899
0.00280912
0.002856457
0.00287804
0.002893567
0.002908435
0.002917978
0.002912437
0.002884353
0.002830898
0.00275124
0.002647326
0.002525217
0.002393571
0.002262132
0.002155555
0.002104833
0.002158438
0.002289935
0.002452367
0.002517928
0.002560236
0.002589431
0.002594447
0.002575529
0.002552207
0.002536729
0.002532115
0.00253869
0.002548854
0.002546099
0.002496769
0.002387109
0.00229351
0.002265584
0.002207391
0.002128336
0.002222068
0.00242361
0.00263105
0.002794783
0.002902252
0.002952765
0.002965218
0.002963817
0.002958672
0.002947302
0.002918626
0.002868843
0.002795541
0.002699721
0.002584168
0.002455919
0.002323884
0.002199365
0.002104512
0.002076139
0.002151454
0.002257084
0.00240618
0.002461265
0.002491155
0.002514658
0.002517867
0.002504807
0.002483719
0.002463809
0.002452723
0.002455423
0.002469919
0.00248293
0.002461042
0.002378271
0.002271796
0.002253085
0.002236833
0.002179313
0.002208267
0.002440839
0.002675344
0.002863333
0.002984168
0.003039673
0.003045419
0.003025777
0.002994606
0.002951295
0.00289294
0.002818297
0.002725516
0.002615846
0.002492161
0.002363
0.002237939
0.002130757
0.002057679
0.002060908
0.002154353
0.002178318
0.0022941
0.002333813
0.002365013
0.002394793
0.002407976
0.002403033
0.002384585
0.002362019
0.002347136
0.002349379
0.002369622
0.002398541
0.002404922
0.002363167
0.002264041
0.002237599
0.002253128
0.00223482
0.002214647
0.002461906
0.002712174
0.002924987
0.003057528
0.003116275
0.003113347
0.00307126
0.003004803
0.002923419
0.002834221
0.002736087
0.002626589
0.002507298
0.002380443
0.002256745
0.002148975
0.002079895
0.002038409
0.002075425
0.002171129
0.002089863
0.002173545
0.002203024
0.002237257
0.00227592
0.002297248
0.002298621
0.002283658
0.002260397
0.00224615
0.002253
0.002278577
0.002320421
0.002353526
0.002353361
0.00228906
0.002243678
0.002258658
0.002269419
0.002246062
0.002481699
0.002750244
0.002978554
0.003117813
0.003174546
0.003158384
0.003089203
0.002984222
0.002869572
0.00275437
0.002637364
0.002514431
0.002388891
0.002264608
0.002159739
0.002100934
0.002095924
0.002063278
0.002101631
0.002158772
0.002046261
0.002133399
0.002146494
0.002163622
0.002198345
0.002221779
0.002228294
0.002217625
0.00219383
0.002180736
0.002193016
0.002219778
0.002275577
0.002341447
0.002385534
0.002371479
0.002327848
0.00232246
0.002337419
0.002316567
0.002467167
0.002763666
0.002998741
0.003149946
0.003213522
0.003195662
0.003112129
0.002982877
0.002835571
0.002689481
0.002547941
0.002409302
0.002279337
0.002166309
0.002097328
0.002115605
0.002147943
0.002109889
0.002126024
0.002138031
0.002040192
0.002195994
0.00223479
0.002231104
0.002257023
0.002277588
0.00228947
0.002294275
0.002267387
0.00223127
0.002211679
0.002259532
0.002357055
0.00244996
0.002491992
0.002464617
0.002395405
0.002350925
0.002329948
0.002306001
0.002358323
0.002565616
0.002763479
0.002923035
0.003018578
0.003045959
0.003014134
0.002938853
0.002835768
0.002711608
0.002569349
0.002416777
0.002268284
0.002144168
0.002080741
0.002134341
0.002158531
0.002101396
0.002063024
0.00201801
0.002555163
0.00229393
0.002232609
0.002308732
0.002364041
0.002440341
0.002508925
0.002521246
0.002499748
0.002456563
0.002396001
0.002333465
0.002295582
0.002263708
0.002227221
0.002243336
0.002266629
0.002280062
0.002292219
0.002294309
0.002280858
0.002240563
0.002226768
0.002260022
0.002346435
0.002368763
0.0023544
0.00242574
0.002478317
0.002428041
0.002354149
0.002278035
0.002214597
0.002196103
0.002176383
0.002191936
0.002233283
0.002224203
0.002192211
0.002120671
0.002183709
0.003192486
0.003374285
0.003288031
0.003156297
0.003048161
0.003093159
0.003288465
0.003531443
0.00378566
0.004020459
0.004193274
0.004268008
0.004266951
0.004234884
0.004193854
0.004129065
0.004045181
0.003827811
0.003758252
0.003912019
0.004355236
0.004447862
0.004117516
0.003695717
0.004208169
0.005301191
0.005214179
0.004830044
0.004436102
0.00409205
0.003908906
0.003846737
0.003812782
0.003816957
0.003764099
0.003641906
0.003476846
0.003117856
0.002110051
0.002074317
0.003630504
0.004068756
0.004090683
0.003857072
0.003698944
0.003902389
0.004435983
0.005029558
0.005489546
0.005805527
0.006012783
0.006124846
0.006150965
0.006049592
0.005808987
0.005597964
0.005493025
0.005189519
0.005265223
0.005791307
0.006414728
0.006397157
0.006128688
0.005460547
0.005413627
0.00717351
0.007475244
0.007039783
0.006532525
0.005990361
0.005559883
0.005295771
0.005213809
0.005244753
0.005199768
0.004909285
0.004427168
0.003637001
0.002115517
0.002147392
0.003638405
0.004434236
0.004524312
0.004324445
0.004204195
0.004514683
0.005244729
0.00600848
0.006557039
0.006966487
0.007259132
0.007433412
0.007480539
0.007347443
0.006975965
0.006505785
0.006177351
0.006026457
0.006343194
0.007189021
0.007886952
0.008054866
0.008061946
0.007910745
0.006720947
0.00665193
0.007431369
0.007210816
0.006653928
0.006196763
0.005700177
0.005337554
0.00526384
0.005541448
0.00566098
0.005313315
0.004675586
0.003733739
0.002050935
0.002214803
0.003484126
0.00426659
0.004415222
0.004325745
0.004274306
0.004596736
0.005399784
0.006399664
0.007170012
0.00773262
0.008130695
0.008363723
0.00842548
0.008284853
0.007894393
0.007296869
0.006743022
0.006719942
0.007252689
0.00821707
0.008942069
0.009350151
0.009585179
0.009645599
0.008317581
0.006550733
0.006133178
0.005868246
0.005400871
0.005070281
0.004899053
0.00484764
0.005004897
0.005499474
0.005661839
0.005209543
0.004526943
0.0036252
0.002067305
0.002271534
0.003436771
0.00407785
0.004251482
0.004221709
0.004151076
0.00431883
0.004973643
0.00616523
0.007331261
0.008134144
0.008676782
0.008999777
0.009112366
0.009009398
0.00867467
0.008141528
0.007576977
0.007416186
0.007889593
0.008855146
0.0096495
0.01019161
0.01048476
0.01043324
0.009528335
0.007288022
0.005778695
0.005076526
0.004672499
0.004467024
0.004473643
0.004623561
0.004943183
0.005412466
0.005396708
0.004822743
0.004127825
0.003363721
0.002125711
0.00228312
0.003639619
0.004362939
0.00452424
0.004490887
0.004270584
0.004187198
0.004473772
0.005364361
0.006833377
0.008125305
0.00893827
0.009414608
0.009623839
0.009598643
0.009360828
0.008957834
0.008464247
0.00800768
0.008301826
0.009213438
0.01004687
0.01063195
0.0108845
0.01078157
0.01020653
0.008295087
0.006460545
0.005238566
0.004638349
0.004493318
0.004596209
0.004804088
0.005064014
0.005290181
0.005056466
0.00439212
0.003733133
0.00313327
0.002197849
0.002250745
0.00392984
0.004883763
0.005203214
0.005153223
0.004935511
0.004609708
0.004444733
0.004785279
0.00587532
0.007511223
0.008873815
0.009616837
0.009959157
0.01003182
0.009907625
0.009636874
0.009099845
0.008745037
0.008936853
0.009519269
0.01016983
0.01070322
0.01090441
0.01076674
0.01025419
0.008946264
0.0073652
0.006176786
0.005433204
0.005104977
0.005087602
0.005186382
0.00521178
0.005074827
0.004585484
0.003900434
0.003340103
0.002936348
0.002300072
0.002295861
0.004008448
0.005214443
0.005796568
0.006095077
0.006006806
0.005677084
0.005162685
0.004845456
0.005356324
0.006754857
0.008432626
0.009624741
0.0101486
0.0103221
0.01030631
0.01014642
0.009823063
0.009647467
0.009669982
0.009858533
0.0101297
0.01044069
0.0105719
0.01041262
0.00991281
0.009031256
0.007833108
0.006839499
0.006157395
0.005765951
0.005556301
0.005347816
0.004964038
0.004376673
0.003784688
0.003265073
0.002967223
0.002803029
0.002422489
0.002434516
0.004022283
0.005559547
0.006384786
0.00684657
0.007169234
0.007119945
0.006523675
0.005653921
0.005409801
0.006376905
0.008139045
0.009481501
0.01022846
0.0105054
0.01057791
0.01054861
0.01045099
0.01027063
0.01010449
0.01013921
0.01010255
0.01004642
0.009955327
0.009712059
0.009239575
0.008526085
0.00776838
0.007039356
0.006530452
0.006189128
0.00580473
0.005209353
0.004396347
0.003582154
0.003075765
0.002869254
0.002814354
0.002788583
0.00252754
0.002412586
0.004156708
0.005971826
0.007019039
0.007632034
0.008110939
0.008425468
0.008153069
0.007029895
0.00600861
0.00628661
0.007825364
0.009434666
0.01022301
0.01058091
0.01072008
0.0107614
0.01072976
0.01058628
0.0103818
0.01034867
0.01017615
0.009849803
0.009487342
0.009090244
0.008621858
0.008070735
0.007514897
0.007038975
0.006699902
0.006343467
0.005868438
0.005214276
0.0044456
0.003767835
0.003298492
0.003051065
0.002951968
0.002871302
0.002509442
0.002265238
0.004473568
0.006405051
0.007573234
0.008317689
0.008920788
0.009355602
0.009473036
0.008628515
0.007091541
0.006458154
0.007430607
0.009063224
0.0101042
0.01049546
0.01068787
0.01078599
0.01082801
0.01078948
0.01064106
0.01053847
0.01030345
0.009917041
0.009436479
0.008925797
0.008415436
0.007906611
0.00742444
0.007067927
0.006915368
0.006667868
0.006314893
0.005849708
0.005284963
0.004642415
0.0040211
0.003569769
0.003319671
0.003062951
0.002439613
0.002237873
0.004871856
0.006936485
0.0080623
0.008824121
0.00946846
0.009982216
0.01022377
0.009920264
0.008319321
0.007041754
0.007200711
0.008492955
0.009658606
0.01018875
0.01036784
0.0105215
0.01069837
0.01081309
0.01076018
0.0106211
0.01040088
0.01006154
0.00961544
0.009104096
0.008544045
0.007900383
0.007253479
0.007135632
0.007374914
0.007331722
0.007137087
0.006780101
0.006242641
0.005525429
0.004746924
0.004199906
0.003896029
0.003403708
0.002390747
0.002279984
0.005207753
0.007425675
0.008512827
0.009191734
0.009776902
0.01030637
0.01065547
0.01057509
0.009179724
0.007792948
0.007549565
0.008603354
0.009614981
0.009961494
0.009947918
0.01001795
0.01032974
0.01068611
0.01071255
0.01059903
0.01041958
0.01014623
0.009760226
0.009250371
0.008517956
0.007575922
0.007127572
0.007379284
0.007973546
0.008053209
0.007872397
0.007460053
0.006826733
0.006031539
0.005262011
0.004787965
0.004500163
0.003735499
0.00236069
0.002304842
0.005379628
0.007709522
0.008865439
0.009458812
0.009955283
0.01045104
0.01085859
0.01063783
0.009401268
0.008367863
0.008631991
0.009954563
0.01072015
0.0105876
0.01005256
0.009735111
0.009912897
0.01041148
0.01058785
0.01048869
0.01034736
0.01013438
0.009758611
0.009097412
0.00809418
0.007383513
0.00740401
0.007997936
0.008549202
0.008556557
0.008292906
0.007786125
0.007076363
0.006284092
0.005625595
0.005238892
0.004859292
0.003869501
0.002354121
0.002309174
0.005497516
0.007846528
0.009039096
0.009581819
0.01001325
0.01047194
0.01077151
0.01025461
0.009158278
0.008570925
0.009706488
0.01135643
0.01173719
0.01145831
0.01064915
0.009941127
0.009840069
0.01021321
0.01044366
0.01031449
0.01018797
0.01001767
0.009599881
0.008867739
0.008016186
0.007759826
0.008223397
0.008825441
0.0089573
0.008816332
0.008449827
0.007873473
0.007156145
0.006447786
0.005915628
0.005538433
0.00501285
0.00382776
0.002375055
0.002293532
0.005467962
0.007829999
0.009000746
0.009507598
0.009908285
0.0102915
0.01028346
0.009735238
0.008851887
0.008514097
0.009743313
0.01149063
0.01193723
0.01179977
0.01128794
0.01064446
0.01031972
0.01041938
0.01031236
0.01008481
0.009924515
0.009747872
0.009361259
0.008827411
0.008388649
0.008460394
0.008930538
0.009149181
0.009115975
0.008860771
0.008420234
0.007831704
0.00718362
0.006596918
0.006144798
0.005715621
0.004941463
0.003670454
0.002402649
0.002262178
0.005234056
0.007655571
0.008675416
0.009133347
0.009491313
0.009681864
0.009669991
0.009279746
0.008755586
0.008730182
0.00961879
0.01090821
0.01170123
0.0117595
0.01151273
0.01119493
0.01089564
0.01052662
0.0101185
0.00976081
0.009464327
0.00914404
0.008906304
0.008750172
0.008757156
0.008906947
0.009156273
0.009242296
0.009089831
0.008742344
0.00827104
0.00773667
0.007205854
0.006724906
0.006274819
0.005624275
0.004683634
0.003475578
0.002428487
0.002217168
0.004867835
0.007348429
0.008064473
0.008313947
0.00860439
0.009027436
0.009218688
0.009168271
0.009142832
0.009382138
0.0099184
0.01061896
0.01119281
0.01144431
0.01139292
0.01111845
0.0107544
0.01029399
0.009772025
0.009234026
0.008562996
0.008215281
0.008243214
0.00851412
0.008924196
0.009216366
0.009330459
0.009251097
0.008952925
0.00852489
0.008066049
0.00761928
0.007182204
0.006704559
0.006067048
0.005290847
0.004407739
0.003338865
0.002444639
0.002151995
0.00478649
0.006863012
0.0072533
0.007486789
0.008131115
0.00880654
0.009283193
0.009641023
0.009929763
0.01015183
0.01035216
0.01065104
0.01100105
0.0111851
0.01114388
0.01082407
0.01039051
0.009845943
0.0091438
0.008022641
0.00715642
0.007077353
0.007580993
0.0085028
0.009242109
0.009529897
0.009482208
0.009190496
0.008720181
0.00820012
0.007734029
0.007321341
0.006862895
0.006305897
0.005701083
0.005041872
0.004280624
0.003297004
0.00246082
0.002086613
0.004781777
0.006525249
0.00699756
0.007514704
0.008437292
0.009331639
0.01000252
0.01046468
0.01069572
0.01073292
0.01065744
0.01067174
0.01090879
0.01102945
0.01083967
0.01041549
0.009854601
0.009046149
0.007855452
0.006548144
0.005941838
0.006250115
0.007386526
0.008742066
0.009513381
0.00970674
0.009535831
0.009070677
0.008473921
0.007896377
0.007398237
0.006944561
0.006481896
0.006022461
0.005574803
0.005057838
0.004374394
0.003367958
0.002493357
0.002061052
0.004698314
0.006465384
0.007330155
0.008204396
0.009200283
0.009900841
0.01032366
0.0105612
0.01069774
0.0107892
0.01074428
0.01064786
0.01081461
0.01076332
0.01044042
0.009887778
0.00904776
0.007879804