/*--------------------------------*- C++ -*----------------------------------*\
| =========                 |                                                 |
| \\      /  F ield         | OpenFOAM: The Open Source CFD Toolbox           |
|  \\    /   O peration     | Version:  2212                                  |
|   \\  /    A nd           | Website:  www.openfoam.com                      |
|    \\/     M anipulation  |                                                 |
\*---------------------------------------------------------------------------*/
FoamFile
{
    version     2.0;
    format      ascii;
    arch        "LSB;label=32;scalar=64";
    class       volScalarField;
    location    "2000";
    object      epsilon;
}
// * * * * * * * * * * * * * * * * * * * * * * * * * * * * * * * * * * * * * //

dimensions      [0 2 -3 0 0 0 0];

internalField   nonuniform List<scalar> 
96000
(
8.065434e-06
6.682936e-06
5.863118e-06
6.295634e-06
6.72076e-06
7.185317e-06
7.929942e-06
8.605337e-06
8.962861e-06
8.909744e-06
8.433547e-06
7.621364e-06
6.731927e-06
6.185237e-06
6.36651e-06
6.55178e-06
6.481367e-06
6.398689e-06
6.335755e-06
6.224548e-06
6.019682e-06
5.704605e-06
5.636621e-06
5.636026e-06
5.474169e-06
5.816553e-06
6.465078e-06
6.801892e-06
6.715871e-06
6.130101e-06
5.624953e-06
5.416502e-06
5.546454e-06
5.913411e-06
6.424249e-06
6.718577e-06
6.72107e-06
6.3183e-06
5.703929e-06
4.681207e-06
6.292703e-06
5.67028e-06
5.91903e-06
6.633273e-06
7.180299e-06
7.734095e-06
8.586362e-06
9.243999e-06
9.413635e-06
9.096007e-06
8.438102e-06
7.616142e-06
6.817653e-06
6.211373e-06
6.010869e-06
6.032209e-06
6.087404e-06
6.288401e-06
6.355434e-06
6.286591e-06
6.13893e-06
5.889697e-06
5.938533e-06
5.971954e-06
5.562276e-06
5.754991e-06
6.317841e-06
6.587052e-06
6.523838e-06
6.239857e-06
5.931559e-06
5.774366e-06
5.817851e-06
5.936455e-06
6.071629e-06
6.087798e-06
5.968285e-06
5.799156e-06
5.779065e-06
5.472427e-06
5.261741e-06
5.628836e-06
5.983164e-06
6.606002e-06
7.124568e-06
7.543739e-06
8.115413e-06
8.562119e-06
8.656009e-06
8.391029e-06
7.889505e-06
7.252367e-06
6.571071e-06
5.967913e-06
5.658461e-06
5.587477e-06
5.625726e-06
5.790928e-06
5.872129e-06
5.862226e-06
5.814694e-06
5.687144e-06
5.810058e-06
5.961895e-06
5.677413e-06
5.14809e-06
5.86149e-06
6.677642e-06
7.008852e-06
6.994698e-06
6.777282e-06
6.59894e-06
6.634128e-06
6.749383e-06
6.754396e-06
6.549549e-06
6.181107e-06
5.795733e-06
5.674135e-06
5.527425e-06
5.261063e-06
5.713783e-06
6.04013e-06
6.562235e-06
6.925866e-06
7.054383e-06
7.295774e-06
7.620442e-06
7.762302e-06
7.658681e-06
7.339446e-06
6.85679e-06
6.289963e-06
5.760639e-06
5.435678e-06
5.401608e-06
5.471944e-06
5.537412e-06
5.519906e-06
5.459892e-06
5.440906e-06
5.459344e-06
5.660024e-06
5.901656e-06
5.747012e-06
5.331795e-06
5.616312e-06
6.695686e-06
7.436875e-06
7.677338e-06
7.586397e-06
7.420149e-06
7.42632e-06
7.504744e-06
7.428692e-06
7.053531e-06
6.520552e-06
5.991079e-06
5.711848e-06
5.484232e-06
5.595159e-06
5.806474e-06
6.089418e-06
6.577793e-06
6.807602e-06
6.712188e-06
6.661507e-06
6.85315e-06
7.055599e-06
7.067116e-06
6.8768e-06
6.522288e-06
6.082423e-06
5.657882e-06
5.361517e-06
5.307507e-06
5.335089e-06
5.288565e-06
5.132947e-06
5.025526e-06
5.07787e-06
5.255454e-06
5.552733e-06
5.871008e-06
5.955257e-06
5.813875e-06
5.831267e-06
6.671012e-06
7.535316e-06
7.918982e-06
7.910506e-06
7.796911e-06
7.821735e-06
7.888044e-06
7.793377e-06
7.407388e-06
6.941407e-06
6.451447e-06
6.102708e-06
5.642126e-06
6.335332e-06
6.18522e-06
6.307893e-06
6.704393e-06
6.821732e-06
6.535198e-06
6.208104e-06
6.183573e-06
6.394811e-06
6.535362e-06
6.489231e-06
6.254402e-06
5.91857e-06
5.58164e-06
5.321966e-06
5.208012e-06
5.139968e-06
4.995006e-06
4.741378e-06
4.611934e-06
4.738754e-06
5.056377e-06
5.443896e-06
5.819462e-06
6.099229e-06
6.262106e-06
6.413638e-06
6.772737e-06
7.401724e-06
7.735934e-06
7.780892e-06
7.709249e-06
7.720542e-06
7.752354e-06
7.686649e-06
7.483972e-06
7.263485e-06
6.995635e-06
6.788491e-06
6.127357e-06
7.083181e-06
6.69711e-06
6.798027e-06
7.025134e-06
6.97478e-06
6.563274e-06
6.019844e-06
5.690877e-06
5.746851e-06
5.972303e-06
6.084657e-06
5.99372e-06
5.749318e-06
5.467786e-06
5.228292e-06
5.063033e-06
4.923263e-06
4.723397e-06
4.469613e-06
4.328837e-06
4.476654e-06
4.867501e-06
5.30469e-06
5.724806e-06
6.140451e-06
6.512845e-06
6.827937e-06
7.049499e-06
7.214866e-06
7.282678e-06
7.240228e-06
7.175162e-06
7.133789e-06
7.158986e-06
7.251198e-06
7.335678e-06
7.48562e-06
7.59765e-06
7.571044e-06
6.767233e-06
7.108027e-06
6.552662e-06
6.806761e-06
7.12574e-06
7.135856e-06
6.763935e-06
6.116771e-06
5.500691e-06
5.278609e-06
5.412201e-06
5.585764e-06
5.616043e-06
5.484769e-06
5.260026e-06
5.028592e-06
4.829674e-06
4.659297e-06
4.483793e-06
4.296687e-06
4.167776e-06
4.293177e-06
4.670249e-06
5.120001e-06
5.579677e-06
6.06056e-06
6.511852e-06
6.890794e-06
7.113742e-06
7.159516e-06
7.086037e-06
6.894901e-06
6.673941e-06
6.508073e-06
6.506149e-06
6.699199e-06
7.100892e-06
7.705569e-06
8.197862e-06
8.32517e-06
7.449595e-06
6.391892e-06
6.0388e-06
6.45636e-06
6.817849e-06
6.995268e-06
6.832874e-06
6.339573e-06
5.661314e-06
5.080325e-06
4.948998e-06
5.05207e-06
5.114253e-06
5.087073e-06
4.94962e-06
4.758226e-06
4.564379e-06
4.387172e-06
4.262299e-06
4.153229e-06
4.09262e-06
4.192724e-06
4.497172e-06
4.901685e-06
5.350567e-06
5.819002e-06
6.248059e-06
6.572125e-06
6.752347e-06
6.754078e-06
6.634147e-06
6.440169e-06
6.202292e-06
5.996946e-06
5.985687e-06
6.297167e-06
6.977619e-06
7.790283e-06
8.501019e-06
8.770055e-06
7.965185e-06
5.793068e-06
5.63181e-06
6.090036e-06
6.455641e-06
6.699895e-06
6.741248e-06
6.514857e-06
5.980205e-06
5.256896e-06
4.718543e-06
4.587761e-06
4.605859e-06
4.625172e-06
4.577011e-06
4.466038e-06
4.328128e-06
4.187413e-06
4.08248e-06
4.03232e-06
4.045959e-06
4.135505e-06
4.373219e-06
4.682356e-06
5.047482e-06
5.428387e-06
5.759003e-06
5.96785e-06
6.021971e-06
5.95384e-06
5.831295e-06
5.701218e-06
5.612247e-06
5.640462e-06
5.876171e-06
6.338548e-06
6.910911e-06
7.617835e-06
8.346833e-06
8.665115e-06
8.045086e-06
5.04849e-06
5.435451e-06
5.854647e-06
6.188248e-06
6.474649e-06
6.644554e-06
6.610585e-06
6.276184e-06
5.614818e-06
4.811766e-06
4.339694e-06
4.217477e-06
4.20595e-06
4.205354e-06
4.164379e-06
4.099489e-06
4.016121e-06
3.943789e-06
3.908357e-06
3.962753e-06
4.076186e-06
4.277885e-06
4.484737e-06
4.722444e-06
4.960306e-06
5.137901e-06
5.191472e-06
5.11077e-06
4.97072e-06
4.884268e-06
4.901862e-06
5.074644e-06
5.481964e-06
6.178834e-06
7.119609e-06
8.041311e-06
8.781709e-06
9.127986e-06
8.982942e-06
7.802625e-06
5.137066e-06
5.576016e-06
5.731314e-06
5.965683e-06
6.294479e-06
6.56084e-06
6.647795e-06
6.443935e-06
5.878609e-06
5.057844e-06
4.344087e-06
4.013995e-06
3.899404e-06
3.859732e-06
3.840961e-06
3.829414e-06
3.811091e-06
3.792657e-06
3.785725e-06
3.842522e-06
3.976238e-06
4.150225e-06
4.27155e-06
4.386099e-06
4.476756e-06
4.495643e-06
4.401731e-06
4.225858e-06
4.098314e-06
4.15901e-06
4.430133e-06
4.912314e-06
5.632597e-06
6.596014e-06
7.748709e-06
8.896249e-06
9.799729e-06
1.018748e-05
9.805722e-06
8.089317e-06
5.621581e-06
5.803527e-06
5.627654e-06
5.807668e-06
6.17861e-06
6.479162e-06
6.591e-06
6.43427e-06
5.930485e-06
5.162793e-06
4.400816e-06
3.953454e-06
3.725841e-06
3.606457e-06
3.535886e-06
3.531919e-06
3.56187e-06
3.608426e-06
3.653977e-06
3.718843e-06
3.842206e-06
3.965306e-06
4.021575e-06
4.041183e-06
4.023265e-06
3.930698e-06
3.763427e-06
3.625665e-06
3.624076e-06
3.889371e-06
4.389286e-06
5.032857e-06
5.825528e-06
6.77795e-06
7.883093e-06
9.049774e-06
1.011612e-05
1.061052e-05
1.016691e-05
8.422657e-06
5.867242e-06
5.928723e-06
5.614354e-06
5.82219e-06
6.20897e-06
6.484574e-06
6.542771e-06
6.339963e-06
5.83366e-06
5.101201e-06
4.344768e-06
3.885267e-06
3.609115e-06
3.428885e-06
3.316004e-06
3.289016e-06
3.3282e-06
3.394787e-06
3.474584e-06
3.569729e-06
3.674154e-06
3.75192e-06
3.762863e-06
3.712738e-06
3.629569e-06
3.514737e-06
3.445028e-06
3.463612e-06
3.618033e-06
3.975855e-06
4.511717e-06
5.130474e-06
5.855887e-06
6.711978e-06
7.717304e-06
8.842135e-06
9.913988e-06
1.036092e-05
9.863025e-06
8.356187e-06
5.895952e-06
5.909672e-06
5.665157e-06
5.933729e-06
6.306878e-06
6.521945e-06
6.490612e-06
6.200956e-06
5.662333e-06
4.931136e-06
4.171265e-06
3.73654e-06
3.51713e-06
3.337627e-06
3.180867e-06
3.121204e-06
3.150783e-06
3.217618e-06
3.297609e-06
3.413085e-06
3.519395e-06
3.573027e-06
3.553047e-06
3.446104e-06
3.350455e-06
3.345944e-06
3.430263e-06
3.569217e-06
3.790944e-06
4.134047e-06
4.579945e-06
5.107661e-06
5.747155e-06
6.525018e-06
7.472505e-06
8.56496e-06
9.545321e-06
9.918e-06
9.458499e-06
8.142701e-06
5.8482e-06
5.84735e-06
5.716732e-06
6.025508e-06
6.356158e-06
6.485983e-06
6.358905e-06
6.002154e-06
5.455562e-06
4.759535e-06
4.055088e-06
3.672045e-06
3.57249e-06
3.445914e-06
3.195473e-06
3.050701e-06
3.056763e-06
3.109079e-06
3.188677e-06
3.306101e-06
3.419955e-06
3.466434e-06
3.434561e-06
3.283718e-06
3.225491e-06
3.316818e-06
3.476879e-06
3.665423e-06
3.920081e-06
4.220015e-06
4.567105e-06
5.017408e-06
5.601888e-06
6.349142e-06
7.28306e-06
8.34531e-06
9.22436e-06
9.571159e-06
9.147373e-06
7.988991e-06
5.731483e-06
5.721929e-06
5.701661e-06
6.026337e-06
6.285735e-06
6.312731e-06
6.102404e-06
5.726633e-06
5.200795e-06
4.601452e-06
4.048801e-06
3.69524e-06
3.564979e-06
3.492292e-06
3.288912e-06
3.112482e-06
3.059154e-06
3.078553e-06
3.137009e-06
3.255254e-06
3.363068e-06
3.405753e-06
3.378027e-06
3.191824e-06
3.161194e-06
3.300165e-06
3.500993e-06
3.726321e-06
3.986333e-06
4.236061e-06
4.529248e-06
4.940843e-06
5.511043e-06
6.267573e-06
7.204726e-06
8.214931e-06
8.995835e-06
9.25535e-06
8.832994e-06
7.879725e-06
5.480897e-06
5.457987e-06
5.530549e-06
5.859065e-06
6.039836e-06
5.972343e-06
5.7283e-06
5.358968e-06
4.901471e-06
4.442883e-06
4.042743e-06
3.736976e-06
3.553842e-06
3.439907e-06
3.329341e-06
3.219148e-06
3.144242e-06
3.122801e-06
3.168894e-06
3.248941e-06
3.322261e-06
3.335932e-06
3.254643e-06
3.115792e-06
3.186693e-06
3.386554e-06
3.606739e-06
3.815313e-06
4.026551e-06
4.253305e-06
4.536283e-06
4.944878e-06
5.534143e-06
6.313396e-06
7.235698e-06
8.159752e-06
8.785478e-06
8.920501e-06
8.576173e-06
7.889367e-06
5.115758e-06
5.071757e-06
5.183947e-06
5.5104e-06
5.63831e-06
5.533327e-06
5.284489e-06
4.970092e-06
4.639649e-06
4.343855e-06
4.047335e-06
3.787135e-06
3.600467e-06
3.47556e-06
3.383668e-06
3.309488e-06
3.253555e-06
3.215187e-06
3.227429e-06
3.284791e-06
3.347015e-06
3.372715e-06
3.297848e-06
3.222502e-06
3.335098e-06
3.567331e-06
3.77765e-06
3.961532e-06
4.14017e-06
4.354083e-06
4.646523e-06
5.078601e-06
5.688745e-06
6.463284e-06
7.327176e-06
8.106928e-06
8.574435e-06
8.693331e-06
8.620053e-06
8.13593e-06
4.715424e-06
4.75031e-06
4.79882e-06
5.085699e-06
5.180998e-06
5.071177e-06
4.896542e-06
4.712995e-06
4.53558e-06
4.340568e-06
4.102587e-06
3.862126e-06
3.673835e-06
3.547666e-06
3.466765e-06
3.405003e-06
3.350913e-06
3.302095e-06
3.297217e-06
3.3456e-06
3.446078e-06
3.497092e-06
3.437716e-06
3.423391e-06
3.56339e-06
3.762555e-06
3.943628e-06
4.12695e-06
4.320115e-06
4.565137e-06
4.905946e-06
5.376929e-06
5.98708e-06
6.713671e-06
7.482349e-06
8.175609e-06
8.681697e-06
8.97457e-06
9.215895e-06
8.663285e-06
4.4328e-06
4.610567e-06
4.681541e-06
4.850204e-06
4.873732e-06
4.795481e-06
4.73081e-06
4.660226e-06
4.55302e-06
4.393673e-06
4.178267e-06
3.948247e-06
3.757748e-06
3.637846e-06
3.559413e-06
3.50137e-06
3.444116e-06
3.393508e-06
3.372657e-06
3.423266e-06
3.536611e-06
3.588514e-06
3.59185e-06
3.66182e-06
3.795803e-06
3.918126e-06
4.052595e-06
4.253089e-06
4.512354e-06
4.848078e-06
5.28177e-06
5.817208e-06
6.443045e-06
7.150516e-06
7.91799e-06
8.686231e-06
9.372568e-06
9.867635e-06
1.030544e-05
9.467307e-06
4.322819e-06
4.565976e-06
4.628723e-06
4.742616e-06
4.762849e-06
4.751194e-06
4.770861e-06
4.737354e-06
4.630266e-06
4.458463e-06
4.243525e-06
4.019893e-06
3.833774e-06
3.718227e-06
3.650952e-06
3.580489e-06
3.512127e-06
3.463861e-06
3.436e-06
3.477929e-06
3.566394e-06
3.648917e-06
3.752113e-06
3.893665e-06
3.98315e-06
4.024773e-06
4.126819e-06
4.370496e-06
4.724569e-06
5.176346e-06
5.730391e-06
6.363224e-06
7.069342e-06
7.867438e-06
8.762448e-06
9.668472e-06
1.047559e-05
1.103607e-05
1.152658e-05
1.045751e-05
4.333281e-06
4.654691e-06
4.722159e-06
4.803658e-06
4.856529e-06
4.865593e-06
4.842169e-06
4.747011e-06
4.606652e-06
4.444149e-06
4.268304e-06
4.080888e-06
3.911776e-06
3.819431e-06
3.744179e-06
3.649943e-06
3.564142e-06
3.501869e-06
3.479304e-06
3.516181e-06
3.618514e-06
3.760614e-06
3.923716e-06
4.050446e-06
4.09601e-06
4.126035e-06
4.24088e-06
4.541258e-06
4.984142e-06
5.551184e-06
6.251145e-06
7.035388e-06
7.906423e-06
8.870045e-06
9.8856e-06
1.081411e-05
1.155109e-05
1.194022e-05
1.222084e-05
1.133692e-05
4.537289e-06
4.892603e-06
4.969764e-06
5.020069e-06
5.036311e-06
4.965786e-06
4.84027e-06
4.680538e-06
4.547316e-06
4.435285e-06
4.317683e-06
4.176417e-06
4.041624e-06
3.947986e-06
3.861025e-06
3.755721e-06
3.645598e-06
3.581053e-06
3.58646e-06
3.675543e-06
3.80498e-06
3.938018e-06
4.04531e-06
4.124504e-06
4.183974e-06
4.257108e-06
4.425528e-06
4.772326e-06
5.279338e-06
6.000716e-06
6.888543e-06
7.866347e-06
8.919517e-06
9.980901e-06
1.094588e-05
1.170612e-05
1.214057e-05
1.206848e-05
1.195355e-05
1.16646e-05
4.923681e-06
5.194099e-06
5.282859e-06
5.297361e-06
5.241642e-06
5.062054e-06
4.86306e-06
4.718641e-06
4.653918e-06
4.599991e-06
4.514119e-06
4.392594e-06
4.274372e-06
4.185832e-06
4.100617e-06
3.993231e-06
3.872221e-06
3.811313e-06
3.84096e-06
3.945971e-06
4.047578e-06
4.110423e-06
4.134596e-06
4.19384e-06
4.305438e-06
4.464364e-06
4.699557e-06
5.056821e-06
5.677467e-06
6.623291e-06
7.700454e-06
8.823644e-06
9.916022e-06
1.088396e-05
1.16467e-05
1.209979e-05
1.209022e-05
1.158546e-05
1.107101e-05
1.126096e-05
5.424828e-06
5.593987e-06
5.656752e-06
5.624089e-06
5.493184e-06
5.242423e-06
5.04167e-06
4.957143e-06
4.946741e-06
4.919131e-06
4.84157e-06
4.730097e-06
4.636299e-06
4.558489e-06
4.473814e-06
4.371864e-06
4.259589e-06
4.18507e-06
4.198525e-06
4.276041e-06
4.319228e-06
4.299507e-06
4.266117e-06
4.329593e-06
4.524276e-06
4.805307e-06
5.141394e-06
5.600615e-06
6.424261e-06
7.501525e-06
8.63585e-06
9.73045e-06
1.070148e-05
1.147024e-05
1.194631e-05
1.20221e-05
1.16134e-05
1.078621e-05
1.000088e-05
1.03634e-05
6.040867e-06
6.183489e-06
6.22262e-06
6.169702e-06
5.981756e-06
5.66656e-06
5.407655e-06
5.281765e-06
5.244624e-06
5.202992e-06
5.127618e-06
5.040334e-06
4.969912e-06
4.910602e-06
4.8418e-06
4.754041e-06
4.655222e-06
4.584684e-06
4.582645e-06
4.618344e-06
4.614465e-06
4.561546e-06
4.523761e-06
4.625326e-06
4.933214e-06
5.380603e-06
5.896516e-06
6.56487e-06
7.453966e-06
8.490576e-06
9.543272e-06
1.050085e-05
1.126879e-05
1.176294e-05
1.190089e-05
1.16228e-05
1.090011e-05
9.874664e-06
8.965122e-06
9.310733e-06
6.644466e-06
6.901824e-06
6.904357e-06
6.834504e-06
6.510559e-06
6.05833e-06
5.626069e-06
5.34064e-06
5.236453e-06
5.193115e-06
5.136336e-06
5.088845e-06
5.078681e-06
5.078219e-06
5.069271e-06
5.040515e-06
4.988645e-06
4.94565e-06
4.940507e-06
4.955622e-06
4.960258e-06
4.953705e-06
4.986543e-06
5.175202e-06
5.612545e-06
6.238507e-06
6.941069e-06
7.710992e-06
8.570493e-06
9.492534e-06
1.038487e-05
1.113329e-05
1.163607e-05
1.181631e-05
1.16215e-05
1.103672e-05
1.008814e-05
8.973315e-06
8.057594e-06
8.376139e-06
7.028734e-06
7.57703e-06
7.377342e-06
7.091498e-06
6.551755e-06
5.945264e-06
5.369345e-06
4.975627e-06
4.875948e-06
4.918906e-06
4.947924e-06
4.981959e-06
5.047263e-06
5.108643e-06
5.154659e-06
5.202198e-06
5.226742e-06
5.237237e-06
5.254949e-06
5.294405e-06
5.373499e-06
5.498785e-06
5.685406e-06
6.007303e-06
6.55329e-06
7.288907e-06
8.086391e-06
8.87332e-06
9.661239e-06
1.043247e-05
1.111848e-05
1.161695e-05
1.183168e-05
1.170019e-05
1.12032e-05
1.037074e-05
9.278978e-06
8.156856e-06
7.310709e-06
7.627193e-06
6.856791e-06
7.612276e-06
7.121907e-06
6.627206e-06
6.035557e-06
5.456375e-06
4.914279e-06
4.603863e-06
4.673333e-06
4.935894e-06
5.138284e-06
5.271278e-06
5.357265e-06
5.371499e-06
5.3337e-06
5.33406e-06
5.375683e-06
5.43834e-06
5.515175e-06
5.632351e-06
5.850695e-06
6.183908e-06
6.591104e-06
7.069136e-06
7.676168e-06
8.423942e-06
9.224966e-06
9.982748e-06
1.067732e-05
1.128675e-05
1.175218e-05
1.198582e-05
1.190818e-05
1.148172e-05
1.07212e-05
9.696606e-06
8.522113e-06
7.439669e-06
6.701616e-06
7.021928e-06
6.279902e-06
6.892373e-06
6.346913e-06
5.945695e-06
5.691204e-06
5.542526e-06
5.468829e-06
5.52092e-06
5.779435e-06
6.074913e-06
6.251972e-06
6.290677e-06
6.211539e-06
6.043143e-06
5.835048e-06
5.643471e-06
5.522107e-06
5.537133e-06
5.679521e-06
5.930592e-06
6.349843e-06
6.949099e-06
7.62112e-06
8.264628e-06
8.895311e-06
9.582349e-06
1.031715e-05
1.10068e-05
1.159359e-05
1.20434e-05
1.22949e-05
1.22728e-05
1.191777e-05
1.12221e-05
1.023707e-05
9.065383e-06
7.844134e-06
6.815186e-06
6.186149e-06
6.548745e-06
5.690356e-06
6.066623e-06
6.031661e-06
6.332492e-06
6.7481e-06
6.98628e-06
7.042051e-06
7.094952e-06
7.30046e-06
7.528389e-06
7.67364e-06
7.619535e-06
7.303564e-06
6.820174e-06
6.377373e-06
6.029643e-06
5.697668e-06
5.509672e-06
5.67638e-06
6.113792e-06
6.800264e-06
7.71257e-06
8.680161e-06
9.500121e-06
1.014254e-05
1.073074e-05
1.134553e-05
1.193557e-05
1.241539e-05
1.27169e-05
1.277225e-05
1.251393e-05
1.190666e-05
1.097337e-05
9.799901e-06
8.512659e-06
7.255778e-06
6.261842e-06
5.69535e-06
6.078466e-06
5.910803e-06
6.750182e-06
7.128605e-06
7.734739e-06
8.35866e-06
8.644422e-06
8.628757e-06
8.532881e-06
8.544557e-06
8.632543e-06
8.741945e-06
8.690548e-06
8.286788e-06
7.522987e-06
6.765706e-06
6.333246e-06
5.926407e-06
5.43257e-06
5.478098e-06
6.119939e-06
7.143716e-06
8.429617e-06
9.730993e-06
1.075086e-05
1.14049e-05
1.187148e-05
1.232985e-05
1.278543e-05
1.314478e-05
1.330378e-05
1.317078e-05
1.269212e-05
1.186064e-05
1.072791e-05
9.408951e-06
8.044172e-06
6.773471e-06
5.809208e-06
5.282501e-06
5.656907e-06
6.355949e-06
7.687579e-06
8.306001e-06
8.920516e-06
9.432255e-06
9.583875e-06
9.437094e-06
9.170422e-06
9.026858e-06
9.007599e-06
9.077436e-06
9.086198e-06
8.812661e-06
8.035051e-06
6.971537e-06
6.397055e-06
6.095807e-06
5.545436e-06
5.208714e-06
5.963622e-06
7.363873e-06
9.078999e-06
1.075118e-05
1.200641e-05
1.269835e-05
1.303595e-05
1.329109e-05
1.354638e-05
1.372755e-05
1.369465e-05
1.334653e-05
1.265135e-05
1.162663e-05
1.034743e-05
8.946354e-06
7.564027e-06
6.329929e-06
5.426761e-06
4.98863e-06
5.402215e-06
6.532801e-06
8.029032e-06
8.695391e-06
9.15671e-06
9.467385e-06
9.512009e-06
9.283922e-06
8.999453e-06
8.796992e-06
8.704302e-06
8.730936e-06
8.791555e-06
8.702064e-06
8.132998e-06
7.027266e-06
6.252438e-06
6.111202e-06
5.724968e-06
5.194104e-06
5.788141e-06
7.493357e-06
9.64301e-06
1.168569e-05
1.321144e-05
1.399995e-05
1.422394e-05
1.423828e-05
1.420872e-05
1.410675e-05
1.377242e-05
1.314647e-05
1.221625e-05
1.103042e-05
9.673258e-06
8.27548e-06
6.960059e-06
5.843931e-06
5.069477e-06
4.81108e-06
5.36729e-06
6.232492e-06
7.55289e-06
8.106339e-06
8.415726e-06
8.64478e-06
8.670118e-06
8.517556e-06
8.276557e-06
8.049228e-06
7.909333e-06
7.90643e-06
8.016394e-06
8.101947e-06
7.836084e-06
6.985122e-06
6.04625e-06
5.977211e-06
5.915057e-06
5.557857e-06
5.739581e-06
7.659442e-06
1.012299e-05
1.253493e-05
1.432731e-05
1.523999e-05
1.538094e-05
1.51204e-05
1.470567e-05
1.415582e-05
1.341442e-05
1.24787e-05
1.134675e-05
1.006721e-05
8.7136e-06
7.40974e-06
6.254996e-06
5.348071e-06
4.773333e-06
4.750766e-06
5.430975e-06
5.591304e-06
6.553277e-06
6.934605e-06
7.21383e-06
7.468108e-06
7.578275e-06
7.512778e-06
7.31573e-06
7.086075e-06
6.926251e-06
6.919925e-06
7.077692e-06
7.31699e-06
7.346053e-06
6.908721e-06
5.990736e-06
5.828541e-06
6.026441e-06
5.967243e-06
5.862003e-06
7.857984e-06
1.05423e-05
1.333276e-05
1.537999e-05
1.639463e-05
1.641707e-05
1.5805e-05
1.485002e-05
1.375259e-05
1.260938e-05
1.141884e-05
1.016275e-05
8.879671e-06
7.614029e-06
6.479068e-06
5.568385e-06
5.017899e-06
4.6799e-06
4.894232e-06
5.596126e-06
4.942134e-06
5.580609e-06
5.849063e-06
6.131088e-06
6.434632e-06
6.599974e-06
6.586969e-06
6.430526e-06
6.209924e-06
6.05928e-06
6.081091e-06
6.274592e-06
6.626104e-06
6.908288e-06
6.878057e-06
6.24732e-06
5.860567e-06
6.040205e-06
6.211043e-06
6.114306e-06
8.052573e-06
1.099831e-05
1.40707e-05
1.629566e-05
1.732514e-05
1.714397e-05
1.609e-05
1.454995e-05
1.300041e-05
1.156454e-05
1.022164e-05
8.918083e-06
7.687769e-06
6.568101e-06
5.685909e-06
5.198745e-06
5.158107e-06
4.919403e-06
5.18456e-06
5.621011e-06
4.652678e-06
5.288603e-06
5.427779e-06
5.589622e-06
5.853292e-06
6.020995e-06
6.034025e-06
5.907763e-06
5.683695e-06
5.535164e-06
5.587541e-06
5.789097e-06
6.260891e-06
6.830977e-06
7.2106e-06
7.001815e-06
6.551599e-06
6.512344e-06
6.720545e-06
6.663845e-06
8.009715e-06
1.119054e-05
1.439384e-05
1.68297e-05
1.80047e-05
1.779583e-05
1.647807e-05
1.452169e-05
1.252744e-05
1.075519e-05
9.218904e-06
7.855107e-06
6.686572e-06
5.743768e-06
5.170744e-06
5.261935e-06
5.507225e-06
5.241797e-06
5.382103e-06
5.462674e-06
4.575302e-06
5.794167e-06
6.163263e-06
6.199484e-06
6.38627e-06
6.535072e-06
6.62006e-06
6.599901e-06
6.333399e-06
6.004577e-06
5.820421e-06
6.157146e-06
7.020306e-06
7.842517e-06
8.1699e-06
7.7805e-06
7.073033e-06
6.714227e-06
6.652909e-06
6.596087e-06
7.085684e-06
9.017055e-06
1.130076e-05
1.344946e-05
1.490858e-05
1.53901e-05
1.495302e-05
1.388602e-05
1.250717e-05
1.098214e-05
9.412428e-06
7.899956e-06
6.570078e-06
5.542801e-06
4.987854e-06
5.346496e-06
5.551854e-06
5.140665e-06
4.922232e-06
4.56196e-06
9.385203e-06
6.378632e-06
5.930445e-06
6.548341e-06
7.046604e-06
7.81629e-06
8.546602e-06
8.688464e-06
8.492412e-06
8.087056e-06
7.515158e-06
6.935984e-06
6.575349e-06
6.276836e-06
5.981988e-06
6.156064e-06
6.337534e-06
6.417297e-06
6.52295e-06
6.547575e-06
6.433153e-06
6.098418e-06
6.013781e-06
6.316935e-06
7.013454e-06
7.171914e-06
7.003776e-06
7.647267e-06
8.210985e-06
7.732396e-06
7.047197e-06
6.390466e-06
5.822486e-06
5.654199e-06
5.464835e-06
5.611151e-06
6.016114e-06
5.933517e-06
5.607432e-06
5.279809e-06
5.472955e-06
2.762499e-06
2.597041e-06
2.905156e-06
3.274359e-06
3.65435e-06
3.747531e-06
3.472474e-06
3.153723e-06
2.89352e-06
2.705866e-06
2.593026e-06
2.541982e-06
2.538795e-06
2.585323e-06
2.649081e-06
2.610145e-06
2.580995e-06
2.72562e-06
2.840812e-06
2.796349e-06
2.553134e-06
2.566294e-06
3.114456e-06
3.657057e-06
3.460216e-06
2.971354e-06
2.987257e-06
3.108236e-06
3.141925e-06
3.114694e-06
3.000786e-06
2.769282e-06
2.564804e-06
2.420537e-06
2.299635e-06
2.260262e-06
2.303687e-06
2.717061e-06
5.008449e-06
4.798248e-06
2.318676e-06
2.168637e-06
2.330286e-06
2.63465e-06
2.904169e-06
2.863449e-06
2.585202e-06
2.350585e-06
2.226987e-06
2.154513e-06
2.099005e-06
2.059993e-06
2.044517e-06
2.077592e-06
2.152446e-06
2.210942e-06
2.255154e-06
2.369662e-06
2.387848e-06
2.26489e-06
2.122485e-06
2.177959e-06
2.445184e-06
2.929048e-06
2.989717e-06
2.619657e-06
2.50076e-06
2.504297e-06
2.508195e-06
2.485064e-06
2.417717e-06
2.316115e-06
2.214306e-06
2.114234e-06
1.981584e-06
1.860278e-06
1.855021e-06
2.353398e-06
5.026421e-06
5.284739e-06
2.536098e-06
2.23231e-06
2.342625e-06
2.564309e-06
2.734826e-06
2.668481e-06
2.443924e-06
2.28468e-06
2.21748e-06
2.160631e-06
2.103842e-06
2.051628e-06
2.01357e-06
2.018962e-06
2.08389e-06
2.181053e-06
2.26775e-06
2.32342e-06
2.284753e-06
2.141014e-06
2.054582e-06
2.093448e-06
2.210163e-06
2.396154e-06
2.721191e-06
2.811057e-06
2.687724e-06
2.652911e-06
2.661919e-06
2.621546e-06
2.58597e-06
2.524103e-06
2.396839e-06
2.193937e-06
2.019856e-06
1.868752e-06
1.801197e-06
2.212794e-06
4.85775e-06
5.779562e-06
2.815358e-06
2.506971e-06
2.596468e-06
2.741574e-06
2.821121e-06
2.722661e-06
2.493529e-06
2.301555e-06
2.227416e-06
2.17527e-06
2.11892e-06
2.062716e-06
2.016821e-06
2.002449e-06
2.035407e-06
2.106789e-06
2.190494e-06
2.21138e-06
2.163844e-06
2.059731e-06
2.017857e-06
2.053025e-06
2.127212e-06
2.203494e-06
2.49725e-06
2.972277e-06
3.233284e-06
3.377271e-06
3.441856e-06
3.363509e-06
3.180718e-06
2.955572e-06
2.66504e-06
2.300228e-06
2.068017e-06
1.918985e-06
1.852277e-06
2.242081e-06
4.92984e-06
6.237665e-06
2.956278e-06
2.718453e-06
2.80428e-06
2.913622e-06
2.954349e-06
2.867866e-06
2.646983e-06
2.355927e-06
2.202543e-06
2.146833e-06
2.09729e-06
2.046275e-06
2.003507e-06
1.983966e-06
1.997312e-06
2.03511e-06
2.085189e-06
2.112209e-06
2.090612e-06
2.02034e-06
1.996635e-06
2.027384e-06
2.09183e-06
2.169216e-06
2.366479e-06
2.920405e-06
3.484984e-06
3.880067e-06
4.035807e-06
3.921007e-06
3.604723e-06
3.220053e-06
2.785834e-06
2.347162e-06
2.11667e-06
2.005979e-06
1.983597e-06
2.380015e-06
5.360913e-06
6.396135e-06
2.806017e-06
2.532382e-06
2.657853e-06
2.824024e-06
2.963128e-06
2.95946e-06
2.82264e-06
2.55156e-06
2.246647e-06
2.114936e-06
2.06595e-06
2.024909e-06
1.988286e-06
1.968095e-06
1.971997e-06
1.990072e-06
2.023044e-06
2.084006e-06
2.067966e-06
2.004897e-06
1.983692e-06
2.00604e-06
2.067028e-06
2.155442e-06
2.286221e-06
2.693387e-06
3.247142e-06
3.732274e-06
3.949886e-06
3.825005e-06
3.48657e-06
3.097747e-06
2.713216e-06
2.352261e-06
2.166355e-06
2.120306e-06
2.189121e-06
2.661178e-06
5.929472e-06
6.167672e-06
2.614031e-06
2.252626e-06
2.306752e-06
2.531376e-06
2.719997e-06
2.845284e-06
2.87045e-06
2.728005e-06
2.428126e-06
2.14756e-06
2.029755e-06
1.989133e-06
1.960931e-06
1.942562e-06
1.942066e-06
1.955563e-06
2.007527e-06
2.042607e-06
2.015434e-06
1.981834e-06
1.973322e-06
1.990214e-06
2.046008e-06
2.135897e-06
2.24782e-06
2.487147e-06
2.841034e-06
3.152585e-06
3.307339e-06
3.246712e-06
3.015042e-06
2.733982e-06
2.504018e-06
2.311613e-06
2.2416e-06
2.312543e-06
2.563655e-06
3.156777e-06
6.775241e-06
6.515965e-06
2.557291e-06
2.1849e-06
2.157697e-06
2.232695e-06
2.402396e-06
2.562142e-06
2.711141e-06
2.75543e-06
2.552949e-06
2.241473e-06
2.024803e-06
1.942476e-06
1.916335e-06
1.902398e-06
1.899506e-06
1.911523e-06
1.943301e-06
1.954648e-06
1.951132e-06
1.948122e-06
1.959966e-06
1.982153e-06
2.028625e-06
2.104666e-06
2.201349e-06
2.32804e-06
2.524124e-06
2.682012e-06
2.740816e-06
2.685813e-06
2.548653e-06
2.405378e-06
2.348753e-06
2.401289e-06
2.549509e-06
2.908295e-06
3.393588e-06
4.006328e-06
7.868282e-06
7.747627e-06
2.679412e-06
2.166811e-06
2.084356e-06
2.138065e-06
2.199194e-06
2.300719e-06
2.459564e-06
2.633178e-06
2.5876e-06
2.300891e-06
2.020729e-06
1.900894e-06
1.861077e-06
1.849462e-06
1.846741e-06
1.849789e-06
1.860182e-06
1.88541e-06
1.91062e-06
1.91094e-06
1.929328e-06
1.965043e-06
2.01098e-06
2.069887e-06
2.13875e-06
2.215184e-06
2.279537e-06
2.331381e-06
2.31345e-06
2.231198e-06
2.144652e-06
2.13171e-06
2.268621e-06
2.6404e-06
3.213366e-06
3.85902e-06
4.472905e-06
5.028769e-06
8.95004e-06
7.518763e-06
2.75287e-06
2.203685e-06
2.036139e-06
2.055568e-06
2.127257e-06
2.173661e-06
2.248986e-06
2.437922e-06
2.545432e-06
2.347719e-06
2.04545e-06
1.85981e-06
1.804604e-06
1.788023e-06
1.785219e-06
1.78846e-06
1.800428e-06
1.828477e-06
1.860136e-06
1.861018e-06
1.873908e-06
1.911442e-06
1.956516e-06
2.000163e-06
2.035642e-06
2.058652e-06
2.060977e-06
2.037803e-06
1.981381e-06
1.929544e-06
1.915044e-06
1.975861e-06
2.168167e-06
2.557452e-06
3.198185e-06
3.950671e-06
4.565956e-06
5.100359e-06
8.71081e-06
6.27279e-06
2.775022e-06
2.24384e-06
2.021252e-06
1.998779e-06
2.071601e-06
2.142165e-06
2.156521e-06
2.251505e-06
2.422495e-06
2.381225e-06
2.107334e-06
1.868548e-06
1.763149e-06
1.73193e-06
1.722053e-06
1.723896e-06
1.735678e-06
1.756912e-06
1.782269e-06
1.78799e-06
1.797531e-06
1.820991e-06
1.849934e-06
1.873858e-06
1.882165e-06
1.873212e-06
1.854924e-06
1.825978e-06
1.777757e-06
1.77394e-06
1.824135e-06
1.934636e-06
2.116346e-06
2.410184e-06
2.860687e-06
3.40036e-06
3.822362e-06
4.282046e-06
7.907827e-06
6.112836e-06
2.953713e-06
2.28997e-06
2.039202e-06
1.986623e-06
2.047553e-06
2.127561e-06
2.151385e-06
2.143232e-06
2.27014e-06
2.331601e-06
2.164121e-06
1.917577e-06
1.769978e-06
1.706945e-06
1.682751e-06
1.672284e-06
1.672769e-06
1.682456e-06
1.698194e-06
1.706439e-06
1.710606e-06
1.717888e-06
1.725442e-06
1.72918e-06
1.725683e-06
1.730167e-06
1.760133e-06
1.741959e-06
1.703134e-06
1.746445e-06
1.838334e-06
1.969839e-06
2.14203e-06
2.373623e-06
2.681749e-06
2.945987e-06
3.06702e-06
3.44957e-06
7.416648e-06
6.416173e-06
3.037651e-06
2.347584e-06
2.091706e-06
2.022082e-06
2.06462e-06
2.134029e-06
2.151844e-06
2.110177e-06
2.164528e-06
2.219512e-06
2.129464e-06
1.909743e-06
1.761086e-06
1.697893e-06
1.671819e-06
1.65101e-06
1.627939e-06
1.615708e-06
1.624998e-06
1.62946e-06
1.626908e-06
1.623769e-06
1.619869e-06
1.62042e-06
1.643221e-06
1.7211e-06
1.773566e-06
1.75338e-06
1.71712e-06
1.777185e-06
1.876922e-06
2.009952e-06
2.179232e-06
2.387332e-06
2.605494e-06
2.700428e-06
2.677566e-06
3.080945e-06
7.143729e-06
6.589995e-06
3.073867e-06
2.377055e-06
2.154311e-06
2.081896e-06
2.105237e-06
2.149398e-06
2.141775e-06
2.109298e-06
2.127506e-06
2.11865e-06
1.981002e-06
1.778881e-06
1.674833e-06
1.644229e-06
1.645711e-06
1.640212e-06
1.61e-06
1.572991e-06
1.566332e-06
1.566729e-06
1.560737e-06
1.555702e-06
1.555142e-06
1.583515e-06
1.674307e-06
1.771265e-06
1.790021e-06
1.751556e-06
1.745932e-06
1.812818e-06
1.909289e-06
2.039555e-06
2.206607e-06
2.399628e-06
2.563811e-06
2.603769e-06
2.583092e-06
3.032173e-06
7.083867e-06
6.618134e-06
3.052744e-06
2.351326e-06
2.181223e-06
2.125661e-06
2.136843e-06
2.152449e-06
2.133881e-06
2.125168e-06
2.137243e-06
2.081671e-06
1.851691e-06
1.660354e-06
1.606399e-06
1.586924e-06
1.602007e-06
1.619186e-06
1.596771e-06
1.550213e-06
1.526867e-06
1.524951e-06
1.52258e-06
1.525596e-06
1.540597e-06
1.595882e-06
1.696784e-06
1.755207e-06
1.735349e-06
1.722948e-06
1.771992e-06
1.842464e-06
1.938053e-06
2.068409e-06
2.232448e-06
2.407326e-06
2.53143e-06
2.548263e-06
2.554699e-06
3.098285e-06
7.268288e-06
6.486757e-06
2.892545e-06
2.284771e-06
2.175066e-06
2.138463e-06
2.140689e-06
2.143729e-06
2.147214e-06
2.141111e-06
2.149557e-06
2.087404e-06
1.852195e-06
1.645911e-06
1.585435e-06
1.559703e-06
1.555197e-06
1.562556e-06
1.551791e-06
1.517284e-06
1.506657e-06
1.511259e-06