/*--------------------------------*- C++ -*----------------------------------*\
| =========                 |                                                 |
| \\      /  F ield         | OpenFOAM: The Open Source CFD Toolbox           |
|  \\    /   O peration     | Version:  2212                                  |
|   \\  /    A nd           | Website:  www.openfoam.com                      |
|    \\/     M anipulation  |                                                 |
\*---------------------------------------------------------------------------*/
FoamFile
{
    version     2.0;
    format      ascii;
    arch        "LSB;label=32;scalar=64";
    class       volScalarField;
    location    "2000";
    object      k;
}
// * * * * * * * * * * * * * * * * * * * * * * * * * * * * * * * * * * * * * //

dimensions      [0 2 -2 0 0 0 0];

internalField   nonuniform List<scalar> 
96000
(
0.0005040222
0.0004128467
0.0003773836
0.0003958478
0.0004134887
0.0004323102
0.0004617254
0.0004873915
0.0005002954
0.0004976062
0.0004788259
0.0004467573
0.0004108703
0.0003888794
0.0003972181
0.0004059635
0.0004036822
0.0004004647
0.0003974484
0.0003922431
0.0003831114
0.000369175
0.0003658717
0.0003658161
0.0003590661
0.0003749463
0.0004028631
0.0004167236
0.0004127332
0.000388359
0.0003670808
0.0003584972
0.0003648404
0.0003812148
0.0004027633
0.0004145062
0.000413494
0.0003957591
0.0003691908
0.0003239283
0.0003953208
0.0003701706
0.000379708
0.0004092776
0.0004316526
0.0004540886
0.0004870097
0.000510945
0.0005162583
0.0005037636
0.0004786299
0.0004467166
0.0004148675
0.0003901286
0.0003821962
0.0003837605
0.0003867077
0.0003954462
0.0003982796
0.0003949329
0.0003882157
0.0003772408
0.0003790944
0.0003805514
0.0003630332
0.0003726859
0.000397077
0.0004082278
0.0004051949
0.000393252
0.0003805237
0.0003742966
0.0003765576
0.0003817925
0.0003873915
0.000387648
0.0003818749
0.0003736394
0.0003716832
0.000359927
0.000351408
0.0003681955
0.0003826349
0.0004083924
0.0004295787
0.0004466511
0.0004690027
0.0004856863
0.0004887484
0.0004783326
0.0004587413
0.000433393
0.0004055995
0.0003803866
0.0003673464
0.0003645558
0.0003666079
0.0003739204
0.0003774029
0.0003766851
0.0003742992
0.0003686406
0.0003738811
0.0003804854
0.0003682661
0.0003454155
0.0003778345
0.0004120659
0.0004252422
0.0004243504
0.0004157182
0.0004089671
0.000410837
0.0004155907
0.0004155564
0.0004067961
0.0003909548
0.0003737006
0.0003668916
0.0003611591
0.000351546
0.000371975
0.0003856975
0.0004073658
0.0004222741
0.0004277253
0.0004375729
0.0004502241
0.0004554156
0.0004509215
0.0004378417
0.0004179681
0.000394204
0.0003715552
0.0003574565
0.0003561501
0.0003595833
0.0003627011
0.0003619387
0.0003590396
0.0003579512
0.0003587139
0.0003676151
0.0003781887
0.0003716518
0.000353283
0.0003666004
0.000412677
0.0004426059
0.0004518586
0.0004483428
0.0004422168
0.000442849
0.0004459388
0.0004424958
0.0004270561
0.0004047673
0.0003818438
0.0003687951
0.0003592899
0.0003653845
0.0003751759
0.0003873227
0.0004076418
0.0004172438
0.0004138343
0.0004122482
0.0004201164
0.0004280177
0.0004280459
0.0004198147
0.0004047355
0.0003858184
0.0003672846
0.0003541835
0.0003518831
0.0003533218
0.0003514349
0.0003444651
0.0003394159
0.0003416285
0.0003496507
0.0003630735
0.0003770918
0.0003808085
0.0003744891
0.0003749184
0.0004111064
0.0004463222
0.0004614836
0.0004613075
0.0004572431
0.0004584787
0.0004610255
0.0004568476
0.0004410663
0.0004215919
0.0004004893
0.0003846778
0.0003654914
0.0003964304
0.0003900539
0.0003951782
0.0004117381
0.0004169018
0.0004057238
0.0003929414
0.0003925411
0.0004013991
0.0004068495
0.0004044273
0.0003940895
0.0003793279
0.0003643302
0.0003526292
0.0003475078
0.0003445679
0.0003380828
0.0003264365
0.0003203028
0.0003261313
0.0003407413
0.0003583342
0.000374974
0.0003870522
0.0003938182
0.0003995684
0.0004144978
0.0004408194
0.0004543467
0.0004564123
0.0004538631
0.0004544521
0.0004556269
0.0004526801
0.0004439048
0.0004341319
0.0004221864
0.0004124158
0.0003858445
0.0004278399
0.0004121889
0.0004157637
0.0004245872
0.0004221421
0.0004056098
0.0003839183
0.000370854
0.0003739445
0.0003835587
0.0003878685
0.0003834615
0.0003724278
0.0003596465
0.000348625
0.0003409947
0.0003346341
0.0003254285
0.0003135617
0.0003069623
0.000314018
0.0003322514
0.0003521885
0.0003708949
0.0003888417
0.0004044226
0.0004170659
0.000425572
0.0004321983
0.0004354507
0.0004342841
0.0004320478
0.0004307006
0.0004318898
0.0004353678
0.0004378322
0.0004426245
0.0004456699
0.0004435803
0.0004132064
0.000429246
0.0004064973
0.0004166685
0.0004295787
0.0004296184
0.0004140969
0.0003870562
0.0003615374
0.0003527891
0.0003591719
0.0003666078
0.0003674557
0.0003611501
0.0003506284
0.0003396993
0.0003301676
0.0003221004
0.0003140018
0.0003053286
0.0002993787
0.0003054782
0.0003232722
0.0003439327
0.0003645234
0.0003853873
0.0004043396
0.0004197986
0.0004285453
0.0004301214
0.0004271551
0.0004197432
0.0004110677
0.0004045067
0.0004046108
0.0004125838
0.0004281433
0.0004509137
0.0004687367
0.0004732811
0.0004414951
0.0003998829
0.0003847087
0.0004022757
0.000417461
0.0004248304
0.0004179466
0.0003970843
0.000367847
0.0003429797
0.0003378889
0.0003427913
0.000345363
0.0003436434
0.000336797
0.0003273808
0.0003176558
0.0003088442
0.0003034041
0.0002984921
0.0002958063
0.0003007581
0.0003152373
0.0003340517
0.0003544038
0.0003749778
0.0003932575
0.0004066792
0.0004139699
0.0004138923
0.000408904
0.0004009512
0.0003911327
0.0003825385
0.0003820403
0.0003950147
0.0004225857
0.0004541438
0.0004810777
0.0004915828
0.0004620702
0.000374248
0.0003670269
0.0003868918
0.000402621
0.0004129968
0.0004147565
0.0004050908
0.0003820327
0.0003501159
0.0003265497
0.0003210794
0.0003220155
0.0003226008
0.0003198125
0.0003139615
0.0003067934
0.0002996995
0.0002950506
0.0002927791
0.0002935346
0.0002980035
0.0003094347
0.0003240186
0.0003408686
0.0003579438
0.0003723725
0.0003812716
0.0003834523
0.0003804695
0.000375222
0.0003696494
0.0003657761
0.0003668028
0.0003763965
0.0003950629
0.0004183228
0.0004470057
0.0004759596
0.0004886701
0.0004652175
0.0003410285
0.0003583091
0.0003767354
0.0003913291
0.0004036484
0.0004108287
0.0004093119
0.0003949496
0.0003660736
0.0003299831
0.000308822
0.0003033868
0.0003027508
0.0003023697
0.0002998845
0.0002962499
0.0002918909
0.000288416
0.0002867754
0.0002894521
0.0002951882
0.0003049985
0.0003148993
0.0003261037
0.0003370616
0.0003450746
0.0003474044
0.0003436726
0.0003372806
0.0003334393
0.0003342765
0.0003418499
0.000359243
0.0003879056
0.0004250105
0.0004606815
0.0004890351
0.000502856
0.0004989698
0.0004555899
0.0003444108
0.0003641424
0.0003712352
0.0003817698
0.0003959636
0.00040724
0.0004108191
0.0004020912
0.0003776507
0.0003409925
0.0003083775
0.0002931376
0.0002877342
0.0002855661
0.0002843088
0.0002833635
0.0002821664
0.0002811022
0.000280765
0.0002836609
0.0002904759
0.0002990351
0.0003049543
0.0003105137
0.0003148533
0.0003157517
0.0003112608
0.0003027532
0.0002965913
0.0002996585
0.000312438
0.0003341717
0.0003651165
0.00040456
0.0004498144
0.0004932711
0.0005266499
0.0005409347
0.0005281213
0.000466119
0.0003658917
0.0003740796
0.0003666146
0.0003748116
0.0003908403
0.0004036208
0.0004083264
0.0004016496
0.0003799737
0.0003457799
0.0003106471
0.0002898391
0.0002788879
0.0002728769
0.0002690693
0.0002686057
0.0002699131
0.0002721041
0.00027437
0.0002777266
0.0002840485
0.0002902364
0.0002930871
0.0002941513
0.0002933486
0.0002888547
0.0002805008
0.0002735088
0.0002733714
0.0002865492
0.0003102912
0.0003392281
0.0003731349
0.0004121287
0.0004555954
0.0004996652
0.0005385468
0.0005564521
0.0005412902
0.0004785604
0.0003768753
0.0003796697
0.0003659704
0.00037525
0.0003918678
0.0004036082
0.0004061522
0.000397631
0.0003758577
0.0003430705
0.0003079236
0.000286409
0.0002728938
0.0002637694
0.000257772
0.0002561968
0.0002580817
0.000261421
0.0002655525
0.0002704719
0.0002758871
0.0002798986
0.000280548
0.0002781705
0.0002740693
0.0002682683
0.0002646339
0.0002654688
0.0002731393
0.0002906068
0.0003157182
0.0003433035
0.0003744218
0.0004098179
0.0004497147
0.0004924877
0.0005317288
0.0005482007
0.0005308989
0.0004760429
0.0003783384
0.0003788969
0.0003680557
0.0003797838
0.0003957118
0.0004049337
0.0004038185
0.0003916798
0.0003684115
0.0003353696
0.0002996608
0.0002791631
0.0002682943
0.0002590733
0.0002507081
0.0002474333
0.0002489347
0.0002524143
0.0002566575
0.0002627387
0.0002682797
0.0002711029
0.0002701916
0.0002648792
0.0002600185
0.0002596588
0.000263966
0.0002708918
0.0002817107
0.0002980537
0.0003185812
0.0003421529
0.0003699531
0.0004025476
0.0004405958
0.0004825805
0.0005189283
0.0005329625
0.0005166242
0.0004680018
0.0003762665
0.0003761416
0.0003700372
0.0003833674
0.0003974689
0.0004031908
0.0003981054
0.0003831196
0.0003592268
0.0003274258
0.0002940927
0.0002759843
0.00027105
0.0002644436
0.0002513771
0.0002437169
0.0002440482
0.0002468692
0.0002511216
0.000257435
0.0002633678
0.0002658062
0.0002642577
0.0002566043
0.0002535997
0.0002582211
0.0002663752
0.0002757309
0.0002880149
0.0003020225
0.0003178382
0.0003382391
0.0003640132
0.0003956695
0.0004335296
0.0004747385
0.000507761
0.0005208693
0.0005054685
0.0004621741
0.0003711054
0.0003706106
0.0003690614
0.0003830099
0.0003941888
0.0003956685
0.0003870555
0.000371043
0.0003476986
0.0003199896
0.0002938862
0.0002770515
0.0002705603
0.0002666207
0.0002560766
0.0002469184
0.0002441893
0.0002452993
0.0002485583
0.0002549075
0.0002605212
0.0002627239
0.0002613015
0.0002517398
0.0002502355
0.0002574952
0.0002677332
0.0002788514
0.0002912272
0.0003027587
0.0003162257
0.0003350739
0.0003603928
0.0003926026
0.0004307606
0.00047017
0.0004997815
0.0005095671
0.0004938933
0.0004578744
0.0003599997
0.0003588898
0.0003612836
0.0003753494
0.0003833855
0.0003809289
0.0003707001
0.0003546247
0.0003339271
0.0003126194
0.0002937914
0.0002790656
0.0002698309
0.0002639231
0.0002580964
0.0002523758
0.0002485346
0.0002475903
0.0002502063
0.0002544991
0.0002583496
0.0002590397
0.000254758
0.0002475547
0.0002514364
0.0002619292
0.0002730758
0.0002832509
0.0002932193
0.0003037209
0.000316802
0.0003355034
0.0003616149
0.0003947108
0.0004322036
0.0004683176
0.0004920485
0.0004971723
0.0004840734
0.0004577886
0.0003436398
0.0003415417
0.0003458592
0.0003596448
0.0003656467
0.0003615815
0.0003509033
0.0003369899
0.0003219989
0.0003082747
0.0002941434
0.0002814137
0.0002720201
0.0002655627
0.0002607615
0.0002568978
0.0002541214
0.0002522875
0.0002530951
0.0002562418
0.0002595961
0.0002609015
0.0002569218
0.0002530197
0.0002589831
0.0002709837
0.0002814944
0.0002903822
0.0002987879
0.0003086949
0.0003221294
0.0003416696
0.0003684194
0.0004010454
0.0004359213
0.0004662492
0.0004840107
0.0004884894
0.0004856339
0.0004666986
0.0003255333
0.000327104
0.000328897
0.0003408993
0.0003453952
0.0003410333
0.000333546
0.0003254749
0.0003174398
0.0003082887
0.0002968149
0.0002849591
0.0002754875
0.0002689842
0.0002647411
0.0002615389
0.0002589156
0.0002566085
0.0002566029
0.0002593712
0.0002646778
0.0002673067
0.0002642236
0.0002634139
0.0002704977
0.000280568
0.0002895057
0.0002983134
0.0003074032
0.0003187028
0.0003341093
0.0003549894
0.0003812018
0.0004112739
0.0004419186
0.0004687165
0.0004879358
0.0004990792
0.0005081265
0.000486575
0.0003125438
0.0003206504
0.0003238443
0.0003312255
0.0003322842
0.0003289885
0.0003262351
0.0003231253
0.0003182043
0.0003106834
0.0003003106
0.0002889772
0.0002793344
0.0002731167
0.0002689326
0.0002660249
0.0002634152
0.0002611471
0.0002605172
0.0002635032
0.0002694264
0.000272066
0.0002721257
0.0002754355
0.0002819599
0.0002880252
0.0002946569
0.0003042601
0.0003163881
0.0003317037
0.0003509623
0.000374063
0.0004002181
0.0004288107
0.0004588436
0.0004881051
0.0005137876
0.0005321221
0.000547895
0.0005166112
0.0003075232
0.0003186306
0.0003216373
0.0003265386
0.0003274321
0.0003269989
0.0003278878
0.0003263504
0.0003214435
0.0003134404
0.0003031994
0.0002921573
0.0002826542
0.0002764688
0.0002729068
0.000269723
0.0002668254
0.0002648372
0.0002638706
0.0002663758
0.0002710394
0.0002752054
0.0002801306
0.0002868296
0.0002910057
0.000293021
0.000298093
0.0003097118
0.0003260791
0.0003463515
0.00037042
0.0003970062
0.0004256812
0.0004570494
0.0004911582
0.0005247143
0.0005538696
0.0005737025
0.000590471
0.0005524236
0.0003080993
0.0003225908
0.0003258713
0.00032906
0.0003313098
0.0003317483
0.0003306544
0.0003263289
0.0003199299
0.0003124172
0.0003041214
0.0002950007
0.0002863228
0.0002813561
0.0002778664
0.0002735291
0.0002696291
0.0002668913
0.0002661246
0.0002683344
0.0002736504
0.0002807359
0.0002884965
0.0002943822
0.0002963603
0.0002977226
0.000303332
0.000317513
0.0003376703
0.0003625747
0.0003922544
0.0004243141
0.0004586649
0.000495371
0.0005327511
0.0005658757
0.00059145
0.0006046093
0.0006137938
0.0005831687
0.0003180217
0.0003333387
0.0003365074
0.0003379969
0.0003385555
0.0003355059
0.0003299807
0.0003228642
0.0003168814
0.000311813
0.0003064229
0.0002997388
0.0002930462
0.0002883867
0.0002842598
0.0002792363
0.0002739517
0.0002709651
0.0002715434
0.0002762753
0.0002828259
0.0002893396
0.0002943614
0.0002979381
0.000300516
0.000303791
0.0003117507
0.0003278665
0.000350546
0.0003814851
0.0004181751
0.0004569975
0.0004971893
0.0005362291
0.000570564
0.0005968342
0.000611396
0.0006087004
0.0006046587
0.000594451
0.0003356505
0.0003466346
0.0003498537
0.0003497492
0.0003473218
0.000339666
0.0003310785
0.0003247886
0.0003220397
0.0003197561
0.0003159328
0.0003102599
0.0003045263
0.0003003549
0.000296349
0.0002911695
0.0002852959
0.0002824497
0.0002841601
0.0002895356
0.0002945819
0.0002976138
0.0002986583
0.0003012562
0.000306222
0.0003132973
0.0003239796
0.0003401929
0.0003673451
0.0004070279
0.0004502378
0.0004933695
0.000533722
0.000568321
0.0005948407
0.0006101701
0.0006096228
0.0005923007
0.0005747121
0.000580935
0.0003574821
0.0003638321
0.0003659265
0.0003641652
0.0003587166
0.0003481156
0.0003395673
0.0003360324
0.0003357638
0.0003346859
0.0003312533
0.0003261254
0.0003217496
0.0003181586
0.0003142463
0.0003093988
0.0003040565
0.0003006182
0.0003014926
0.0003053855
0.000307518
0.0003065939
0.000304912
0.0003076717
0.0003163858
0.0003287522
0.0003432134
0.0003631398
0.0003982799
0.0004420031
0.0004859473
0.0005266782
0.000561651
0.0005885909
0.0006049349
0.0006074553
0.0005934728
0.0005648568
0.0005374609
0.0005501444
0.0003834513
0.0003887463
0.0003900422
0.0003877985
0.0003801702
0.0003671041
0.000356235
0.0003509356
0.0003494256
0.0003476597
0.0003443379
0.0003403364
0.000337082
0.0003344126
0.0003313319
0.0003272914
0.0003227453
0.0003195829
0.0003196799
0.0003214921
0.0003213547
0.0003188701
0.0003169842
0.0003214301
0.0003350318
0.0003542818
0.0003757484
0.0004034707
0.0004396212
0.0004800081
0.0005194219
0.0005541065
0.0005812328
0.0005984137
0.0006032327
0.0005938382
0.0005689596
0.0005327545
0.0005000424
0.0005126386
0.000408297
0.0004183445
0.000418412
0.0004157287
0.0004028511
0.0003843704
0.0003662312
0.0003539264
0.0003493064
0.0003473464
0.0003447759
0.0003425439
0.0003420058
0.0003420324
0.0003416631
0.0003404144
0.0003381841
0.0003363821
0.0003363106
0.0003371017
0.0003372908
0.0003368791
0.0003381731
0.0003463422
0.0003650819
0.0003910635
0.0004192741
0.000449535
0.0004825642
0.0005169842
0.0005493618
0.0005759164
0.0005935354
0.0005999611
0.0005935607
0.0005736376
0.0005404279
0.0005000645
0.0004661043
0.0004780638
0.0004239681
0.0004455415
0.0004379497
0.0004269318
0.0004053128
0.000380069
0.0003552244
0.0003377003
0.0003330713
0.0003348672
0.0003360861
0.0003375188
0.0003403301
0.0003431484
0.0003454894
0.0003477153
0.0003490107
0.000349729
0.0003507102
0.0003525364
0.0003559465
0.0003612325
0.0003690658
0.000382518
0.0004048772
0.0004340092
0.0004645187
0.0004938631
0.000522683
0.0005503955
0.0005746607
0.0005921418
0.0005998217
0.0005957177
0.0005790227
0.0005502717
0.0005112316
0.0004694928
0.0004371882
0.0004494355
0.000417397
0.0004476972
0.0004285121
0.0004086102
0.0003838726
0.0003588225
0.0003345437
0.0003201486
0.0003233709
0.0003355534
0.0003449763
0.0003510962
0.00035482
0.0003551067
0.0003531864
0.0003533857
0.0003556061
0.000358776
0.0003624652
0.0003676829
0.0003769731
0.0003908066
0.0004073486
0.0004263785
0.0004499688
0.0004781403
0.0005073436
0.0005343214
0.0005586773
0.0005798597
0.0005960004
0.0006042603
0.0006020458
0.0005879673
0.0005620844
0.0005261007
0.0004831186
0.0004417337
0.0004127542
0.0004255277
0.0003938795
0.0004194254
0.0003968667
0.000379687
0.0003681691
0.0003613063
0.0003581535
0.0003609044
0.0003726225
0.0003858063
0.0003938917
0.0003959947
0.0003927756
0.0003852561
0.0003757211
0.0003669211
0.0003617448
0.0003630581
0.0003698108
0.0003808554
0.0003984223
0.0004226289
0.0004488552
0.000473223
0.0004964947
0.0005211797
0.0005468559
0.0005704182
0.0005902645
0.000605443
0.0006140407
0.0006136089
0.0006020727
0.0005787946
0.0005448315
0.0005029238
0.0004571483
0.0004166942
0.0003912751
0.000406093
0.0003687447
0.0003847218
0.0003824787
0.0003945759
0.0004115136
0.0004214439
0.0004241436
0.0004268744
0.0004357405
0.0004454886
0.0004519686
0.0004505515
0.0004384857
0.0004188105
0.00039982
0.0003842919
0.0003693668
0.0003615637
0.0003697204
0.0003889018
0.0004173542
0.0004532819
0.0004896712
0.0005193586
0.0005419769
0.0005622254
0.000582929
0.0006024186
0.0006181424
0.000628023
0.0006298956
0.0006215261
0.000601494
0.0005699655
0.0005289903
0.0004821275
0.0004339298
0.000393787
0.0003702052
0.0003861866
0.0003778699
0.0004124401
0.0004279071
0.0004517564
0.0004757225
0.0004866445
0.0004863983
0.0004832563
0.000484273
0.0004882717
0.0004931
0.0004919019
0.0004772841
0.0004478612
0.0004169233
0.0003980774
0.0003799302
0.0003579314
0.000360956
0.0003892952
0.0004315601
0.0004812233
0.0005286308
0.0005641448
0.0005862322
0.0006016792
0.0006166129
0.000631222
0.0006426375
0.0006476106
0.0006431449
0.0006274058
0.0005997572
0.0005611497
0.0005145277
0.0004640221
0.0004143008
0.0003744593
0.0003520654
0.0003680852
0.0003969028
0.000450468
0.0004744398
0.0004974539
0.0005162698
0.000521872
0.0005167659
0.00050738
0.0005025401
0.0005023688
0.0005055179
0.0005064252
0.0004969477
0.0004679986
0.0004260368
0.0004015612
0.0003879571
0.0003633612
0.0003487199
0.0003826811
0.0004405655
0.0005058899
0.0005652036
0.0006074541
0.0006299559
0.0006406817
0.0006486609
0.0006565355
0.0006619883
0.0006605608
0.0006489524
0.0006259355
0.0005915401
0.0005474017
0.0004971072
0.0004450066
0.0003957415
0.000357685
0.0003388854
0.0003571364
0.0004045678
0.0004641421
0.0004894252
0.000506439
0.0005178836
0.0005196036
0.0005114599
0.0005012772
0.0004941013
0.0004910441
0.0004924317
0.0004951236
0.0004923305
0.0004713275
0.0004283892
0.0003960832
0.0003891962
0.0003718316
0.0003477739
0.0003751104
0.0004457429
0.0005268539
0.0005977545
0.0006476884
0.0006725155
0.0006793011
0.0006794793
0.0006781783
0.0006744341
0.0006631385
0.0006423375
0.0006112261
0.0005707548
0.0005229182
0.0004715004
0.000420612
0.0003749356
0.000341594
0.0003305272
0.0003554069
0.000392312
0.0004459065
0.000467207
0.0004789193
0.0004876755
0.0004887003
0.000483123
0.0004742295
0.000465793
0.0004606872
0.0004608545
0.0004654124
0.0004691192
0.0004593203
0.0004263096
0.0003876473
0.00038384
0.0003804625
0.0003640256
0.000372375
0.0004522557
0.000544333
0.0006266421
0.0006839402
0.0007119189
0.000715878
0.0007074921
0.0006941126
0.0006760637
0.0006515771
0.0006202743
0.0005816485
0.0005367287
0.0004873868
0.0004376352
0.0003912981
0.0003530418
0.0003277618
0.0003272465
0.0003577539
0.0003650417
0.0004055603
0.0004207834
0.0004320307
0.0004423373
0.0004468128
0.0004444206
0.0004368664
0.0004279151
0.0004217259
0.0004217324
0.0004283419
0.0004381714
0.0004396247
0.0004226213
0.0003852022
0.0003777287
0.0003854211
0.0003819645
0.0003768678
0.0004600527
0.0005593037
0.0006531982
0.0007172775
0.0007476405
0.0007477985
0.0007287458
0.0006986966
0.0006632103
0.0006252787
0.0005846307
0.0005403833
0.0004935085
0.0004452684
0.0003999237
0.0003617885
0.0003378699
0.0003230199
0.0003333206
0.0003645622
0.0003361578
0.0003642866
0.0003754614
0.000387384
0.0004002726
0.0004072782
0.0004069981
0.0004008238
0.0003918767
0.0003858705
0.0003871499
0.0003954817
0.0004101222
0.0004217412
0.0004208035
0.0003955292
0.0003792757
0.0003863301
0.0003926901
0.0003876112
0.0004675864
0.0005752684
0.0006771472
0.0007455624
0.000775715
0.0007696797
0.0007374303
0.0006892286
0.0006388529
0.0005903171
0.000543064
0.0004952854
0.0004482198
0.0004033697
0.0003665093
0.0003456515
0.0003438841
0.0003332053
0.0003452305
0.0003643301
0.0003227486
0.0003513407
0.0003570189
0.0003637484
0.0003752054
0.0003825657
0.0003835392
0.0003785931
0.0003693446
0.0003633937
0.0003661301
0.0003749343
0.0003947829
0.0004182917
0.0004337863
0.0004262002
0.0004084622
0.000406767
0.000414551
0.0004109581
0.0004649772
0.0005816876
0.0006871944
0.0007615739
0.0007956204
0.0007887894
0.0007490343
0.0006884041
0.0006233987
0.0005625408
0.0005069215
0.0004550119
0.00040832
0.000368934
0.000344429
0.0003489642
0.0003597183
0.0003478148
0.0003537798
0.000357433
0.0003195876
0.0003731283
0.0003882022
0.0003890214
0.0003971302
0.000403557
0.0004072221
0.0004070219
0.0003963715
0.0003828504
0.0003752638
0.0003900995
0.0004254471
0.000458457
0.0004719318
0.0004580162
0.0004305251
0.0004155528
0.0004118056
0.0004079352
0.0004275803
0.0005030945
0.0005845278
0.0006558349
0.0007016906
0.0007161588
0.0007022175
0.0006681936
0.000622927
0.0005707897
0.0005143724
0.0004570266
0.0004037747
0.0003605757
0.0003369539
0.0003533227
0.0003620721
0.0003437565
0.0003332845
0.0003173411
0.0005121615
0.0004000703
0.0003805754
0.0004066836
0.0004268965
0.0004568029
0.0004843333
0.000489531
0.0004819028
0.000466173
0.0004438027
0.0004207512
0.0004063236
0.0003942259
0.0003817462
0.0003886701
0.0003964124
0.0004000862
0.0004044466
0.0004053986
0.0004006635
0.0003866392
0.0003827619
0.000395211
0.0004243272
0.0004311432
0.0004247711
0.0004505317
0.0004718756
0.0004532529
0.0004260723
0.0003991253
0.0003756342
0.0003686178
0.0003607613
0.0003668563
0.0003834155
0.0003799921
0.0003667337
0.0003500656
0.000361561
0.000310574
0.0003095964
0.000323245
0.000336227
0.0003490672
0.0003560901
0.000353427
0.0003490366
0.0003461521
0.0003449636
0.0003448755
0.0003444928
0.0003442321
0.0003460616
0.0003486026
0.0003433507
0.0003379463
0.0003378362
0.0003417611
0.0003459464
0.0003487826
0.0003533787
0.0003745627
0.0003845429
0.0003991549
0.0004151539
0.0004128303
0.0004052986
0.000390519
0.0003734414
0.0003582546
0.0003414126
0.000327114
0.0003179553
0.0003077565
0.0003001141
0.0002960346
0.00030445
0.0003400635
0.0003299685
0.0003034422
0.0003106739
0.0003229144
0.0003334085
0.0003427972
0.0003496213
0.0003541853
0.0003596193
0.0003656944
0.0003699027
0.000371567
0.0003715113
0.0003708988
0.0003707902
0.0003698299
0.0003679533
0.0003681188
0.0003667824
0.000370869
0.0003788123
0.0003859439
0.0003904203
0.0004049092
0.0004183201
0.0004208237
0.0004534506
0.0004522593
0.0004391973
0.0004234073
0.000403583
0.0003835075
0.0003663395
0.000355415
0.0003483205
0.0003357678
0.0003161109
0.0002997631
0.000306021
0.0003410809
0.0003523573
0.0003177157
0.0003290676
0.0003405069
0.0003482936
0.0003546481
0.0003630244
0.0003744531
0.0003875166
0.000398824
0.0004057848
0.0004087402
0.0004084516
0.0004059239
0.0004028328
0.0003987786
0.0003939823
0.0003914678
0.0003913784
0.0003981824
0.0004103522
0.0004210465
0.0004295126
0.0004415205
0.0004553984
0.0004473313
0.0004523249
0.000467485
0.0004575016
0.0004402244
0.000421597
0.0004015981
0.0003839378
0.000371541
0.0003647187
0.0003537035
0.0003296036
0.0003035539
0.0003006655
0.0003301935
0.0003742319
0.0003275899
0.0003420829
0.000354146
0.0003601954
0.0003631973
0.0003700119
0.000383787
0.0004014097
0.0004179859
0.0004289646
0.0004341325
0.00043443
0.0004311515
0.0004260108
0.0004192586
0.0004100876
0.0004019748
0.0004031982
0.0004143545
0.0004303049
0.0004443019
0.0004582706
0.0004723065
0.0004822186
0.0004767164
0.0004615613
0.0004658103
0.0004656717
0.0004509913
0.0004319664
0.0004129099
0.0003959342
0.0003820212
0.0003720331
0.0003579221
0.0003307244
0.0003028917
0.0002982153
0.0003339669
0.0003937336
0.0003334067
0.0003482629
0.0003611689
0.0003668454
0.0003662879
0.0003680994
0.0003795004
0.0003986172
0.0004202952
0.0004370778
0.000446182
0.0004488492
0.0004469024
0.0004421969
0.0004353612
0.0004257434
0.0004157421
0.0004139669
0.0004247907
0.0004424078
0.0004591088
0.0004754494
0.0004898463
0.0004976019
0.0004966917
0.000482572
0.0004694203
0.0004642502
0.0004542401
0.0004377743
0.0004200559
0.000403609
0.0003881714
0.0003728299
0.0003535308
0.0003253448
0.0002993095
0.0002959597
0.0003531287
0.0003997154
0.0003342638
0.0003476732
0.0003627109
0.0003724988
0.0003720841
0.0003681993
0.0003716833
0.0003869614
0.0004098171
0.0004335854
0.0004494621
0.0004566776
0.0004575292
0.0004546031
0.0004493806
0.0004416115
0.0004328163
0.000427282
0.0004333817
0.0004495407
0.000466945
0.000483048
0.0004961275
0.0005042291
0.0005052678
0.0004944134
0.0004790989
0.0004625325
0.00044774
0.0004336581
0.0004187388
0.0004035266
0.000387736
0.0003690027
0.000346204
0.0003192089
0.0002990223
0.0003020364
0.0003776269
0.0003897041
0.0003352266
0.0003469129
0.0003623655
0.0003777806
0.0003832455
0.0003788135
0.0003736104
0.0003779125
0.0003950588
0.000420085
0.0004439018
0.0004574649
0.000462223
0.0004617276
0.0004588016
0.000454059
0.0004470537
0.0004420665
0.0004439028
0.0004543042
0.000468563
0.0004827476
0.0004940477
0.0005015897
0.0005021704
0.0004933968
0.0004784777
0.0004615862
0.0004434155
0.0004258568
0.0004096821
0.0003938892
0.0003778851
0.0003582845
0.0003353719
0.0003141573
0.0003060847
0.0003184537
0.0004129477
0.000404536
0.0003348677
0.0003530401
0.0003699063
0.0003858519
0.000397345
0.0003989265
0.0003913311
0.0003821986
0.0003867883
0.0004069952
0.0004322016
0.0004522577
0.0004612664
0.000463497
0.0004627892
0.0004606351
0.000456989
0.0004542059
0.0004543249
0.0004583792
0.0004660514
0.0004758223
0.0004843839
0.0004896496
0.0004886064
0.0004796111
0.0004651006
0.000447994
0.0004297075
0.0004116345
0.0003936316
0.0003751677
0.0003571807
0.0003391234
0.0003249467
0.0003223513
0.0003319367
0.0003505324
0.0004566964
0.0004542424
0.000343366
0.0003630273
0.0003815691
0.000400188
0.0004153243
0.000423346
0.0004189934
0.0004035995
0.0003913528
0.0004006587
0.0004241891
0.0004440533
0.0004563561
0.0004610463
0.0004622928
0.0004620312
0.0004611774
0.0004602698
0.0004595735
0.000460401
0.0004617738
0.0004647314
0.0004679957
0.0004689651
0.0004649641
0.0004545648
0.0004401579
0.0004237378
0.0004065648
0.0003887013
0.0003690681
0.0003485768
0.000330351
0.00032171
0.0003288704
0.0003480912
0.00037115
0.0003917253
0.0004975193
0.0004454652
0.0003538119
0.0003794367
0.0003954187
0.000414289
0.0004344752
0.0004476261
0.0004479025
0.0004330334
0.0004090777
0.0004018475
0.000418477
0.0004381469
0.000449263
0.0004549535
0.0004575748
0.0004588698
0.0004597234
0.0004601814
0.0004596434
0.0004590175
0.000456748
0.0004538412
0.0004506328
0.000445995
0.0004381898
0.0004263451
0.0004116371
0.0003961464
0.0003811019
0.000365945
0.0003506533
0.0003357413
0.0003247457
0.0003247018
0.0003397426
0.0003631649
0.0003840301
0.0004003026
0.0004890648
0.0003942619
0.0003685241
0.0003965229
0.0004092278
0.000426482
0.0004496496
0.0004682578
0.0004727691
0.0004610417
0.0004335544
0.000410198
0.0004139149
0.0004304486
0.0004414892
0.0004459521
0.0004487343
0.0004510286
0.0004534457
0.0004553974
0.0004555054
0.0004540301
0.0004501331
0.0004444821
0.0004370096
0.0004277598
0.0004162714
0.0004025318
0.000388159
0.0003757607
0.0003667438
0.0003597353
0.0003550036
0.0003518757
0.0003498145
0.0003498822
0.0003547603
0.0003644297
0.0003726058
0.0003788277
0.0004594566
0.0003868497
0.0003967674
0.0004168641
0.0004241049
0.0004379357
0.0004605503
0.0004820341
0.0004905603
0.0004823153
0.0004545828
0.0004238517
0.0004129233
0.0004221242
0.0004324848
0.0004362111
0.0004368962
0.0004387485
0.0004424827
0.000446133
0.0004471153
0.0004452917
0.0004411862
0.0004348495
0.000426032
0.0004149977
0.0004016246
0.000386704
0.000373732
0.0003687667
0.0003706974
0.0003742806
0.00037887
0.0003822538
0.0003824866
0.0003787995
0.0003731966
0.0003679268
0.0003615776
0.0003584273
0.0004404798
0.0004000536
0.0004160034
0.0004367049
0.0004413681
0.0004509368
0.0004699391
0.0004905436
0.0005008651
0.0004941254
0.0004662732
0.0004350417
0.0004194165
0.0004239968
0.000430427
0.0004301784
0.0004265691
0.0004253929
0.0004289303
0.0004346218
0.000436406
0.0004346806
0.0004306445
0.0004245451
0.0004158886
0.0004049484
0.0003913116
0.000377686
0.0003718845
0.0003762359
0.0003870263
0.0003956991
0.0004020604
0.0004050227
0.0004034363
0.000396907
0.0003872945
0.0003761105
0.0003630892
0.000354858
0.0004295673
0.0004076448
0.0004253239
0.0004477577
0.0004571077
0.0004641586
0.0004788502
0.000495752
0.0005044346
0.0004954886
0.0004678167
0.0004404454
0.0004325656
0.0004401795
0.0004432257
0.0004364307
0.0004254495
0.0004179754
0.000417869
0.0004232943
0.0004259567
0.0004240075
0.0004203315
0.0004153086
0.0004074606
0.000396986
0.0003850437
0.0003782528
0.0003807799
0.0003914833
0.0004040992
0.0004119443
0.0004161997
0.0004168136
0.0004133161
0.0004061719
0.0003972339
0.0003863164
0.0003705812
0.0003582935
0.0004271616
0.0004088991
0.0004284777
0.000449267
0.0004644371
0.0004720525
0.0004838355
0.0004966018
0.0005014844
0.0004883125
0.0004627912
0.0004418543
0.0004434767
0.0004542212
0.0004542021
0.0004460424
0.0004320421
0.0004196625
0.0004146205
0.0004162005
0.0004176838
0.000414828
0.0004119513
0.000408895
0.0004022381
0.0003934693
0.0003857462
0.000386008
0.0003951179
0.0004078615
0.0004167046
0.0004215538
0.0004232697
0.0004220978
0.0004180647
0.0004120861
0.0004047634
0.0003929492
0.0003743151
0.0003602174
0.0004346016
0.0004034477
0.0004159606
0.0004423953
0.0004627955
0.0004716346
0.0004817267
0.0004913091
0.0004915236
0.0004775713
0.0004562975
0.0004409978
0.0004443812
0.0004549082
0.0004550597
0.0004487424
0.0004382664