/*--------------------------------*- C++ -*----------------------------------*\
| =========                 |                                                 |
| \\      /  F ield         | OpenFOAM: The Open Source CFD Toolbox           |
|  \\    /   O peration     | Version:  2212                                  |
|   \\  /    A nd           | Website:  www.openfoam.com                      |
|    \\/     M anipulation  |                                                 |
\*---------------------------------------------------------------------------*/
FoamFile
{
    version     2.0;
    format      ascii;
    arch        "LSB;label=32;scalar=64";
    class       volScalarField;
    location    "2000";
    object      nut;
}
// * * * * * * * * * * * * * * * * * * * * * * * * * * * * * * * * * * * * * //

dimensions      [0 2 -1 0 0 0 0];

internalField   nonuniform List<scalar> 
96000
(
0.002834745
0.002295371
0.00218615
0.002240059
0.002289557
0.002340925
0.00241958
0.002484451
0.002513326
0.002501203
0.002446738
0.002356965
0.002256901
0.002200473
0.002230485
0.0022639
0.002262847
0.002255693
0.00224391
0.002224566
0.002194417
0.002150213
0.002137377
0.002136954
0.002119694
0.002175279
0.002259351
0.002297782
0.002282858
0.002214326
0.002155991
0.002135478
0.002159896
0.002211791
0.002272584
0.002301586
0.00228951
0.002231023
0.002150652
0.002017355
0.002235139
0.002174913
0.002192256
0.002272744
0.00233544
0.002399464
0.002486042
0.002541739
0.002548116
0.002510992
0.002443416
0.002358151
0.002272095
0.002205314
0.002187147
0.002197286
0.002210936
0.002238088
0.002246329
0.002232924
0.00220951
0.002174638
0.002178001
0.002182492
0.002132469
0.00217212
0.002246069
0.002276967
0.002264995
0.002230539
0.002197036
0.002183585
0.002193526
0.002209887
0.002224527
0.002221557
0.00219905
0.002166622
0.002151448
0.002130548
0.002112207
0.002167609
0.002202322
0.002272265
0.002331146
0.002380086
0.002439398
0.00247955
0.00248368
0.002454072
0.002400648
0.002330915
0.002253207
0.002182079
0.002146327
0.002140695
0.002150144
0.002172965
0.002183019
0.002178396
0.00216847
0.002150575
0.002165355
0.002185417
0.002149887
0.002085835
0.002191986
0.002288509
0.002322033
0.002316983
0.002295013
0.002281104
0.002289801
0.002303086
0.002300996
0.00227397
0.002225509
0.002168611
0.002135101
0.002123816
0.002114138
0.002179447
0.002216613
0.002275935
0.002317167
0.002334067
0.002361957
0.002393976
0.002404738
0.002389409
0.002350788
0.00229302
0.002223496
0.002156844
0.002115608
0.002113419
0.002126669
0.002138126
0.0021359
0.002124922
0.002119429
0.002121283
0.002148874
0.002181151
0.002163082
0.002106757
0.002153661
0.002289117
0.002370753
0.002393519
0.002384664
0.002371922
0.002376732
0.002384829
0.002372184
0.00232705
0.002261357
0.002190327
0.002143069
0.002118443
0.002147486
0.002181725
0.00221724
0.002273629
0.002301591
0.002296314
0.002296083
0.002317883
0.002336857
0.002333355
0.002306596
0.002260399
0.002202581
0.002145824
0.002105773
0.002099659
0.002105919
0.002101814
0.002080493
0.002063124
0.002068565
0.002093636
0.002136608
0.002179837
0.00219157
0.002170976
0.002169468
0.002280129
0.002379239
0.002420392
0.002421136
0.002413316
0.002418676
0.002425064
0.002410236
0.002363661
0.002304515
0.002237522
0.002182298
0.002130856
0.00223258
0.002213791
0.002228149
0.002275753
0.00229306
0.002266965
0.002238408
0.00224271
0.002267606
0.002279505
0.002268455
0.00223484
0.00218804
0.002140282
0.002102843
0.002086891
0.002078891
0.002059457
0.002022718
0.002002078
0.002020055
0.002066582
0.0021228
0.002174513
0.002210582
0.002229018
0.002240372
0.002283088
0.002362822
0.002401621
0.002409505
0.002404807
0.002407526
0.002410059
0.002399321
0.002369682
0.00233529
0.002293105
0.002254966
0.002186724
0.002325823
0.00228322
0.002288509
0.002309519
0.002299479
0.002255998
0.002203611
0.00217505
0.002189913
0.002216993
0.002225233
0.002207952
0.002171253
0.002129034
0.002092183
0.002066935
0.002047057
0.002017898
0.001979788
0.001959031
0.001982431
0.002041127
0.002104423
0.002162636
0.002216093
0.002260178
0.00229278
0.002312226
0.002330131
0.002343308
0.002344435
0.002341394
0.002340309
0.002344968
0.002352585
0.002351894
0.002355514
0.002352826
0.002339006
0.00227073
0.002332952
0.002269551
0.002295532
0.002330763
0.002327889
0.002281639
0.002204288
0.002138611
0.002122038
0.002145227
0.002165526
0.002163825
0.002140226
0.00210353
0.002065311
0.002031392
0.002004032
0.00197907
0.001952738
0.00193544
0.001956249
0.002013906
0.002079311
0.002143306
0.002205589
0.002259594
0.002301734
0.002323474
0.002325632
0.002317449
0.002299756
0.002278698
0.002262775
0.00226461
0.002286883
0.002323314
0.002374787
0.002412125
0.002421519
0.002354841
0.002251535
0.002205748
0.002255809
0.002300525
0.002322038
0.00230081
0.002238453
0.002151096
0.002083952
0.002076219
0.002093306
0.002098998
0.00208925
0.002062563
0.002027233
0.001989639
0.001956756
0.001943755
0.001930733
0.001924225
0.001941695
0.00198874
0.002048917
0.002112708
0.002174729
0.002227673
0.002264856
0.002284153
0.002282712
0.002268299
0.002246613
0.002219927
0.002196153
0.002194557
0.002230098
0.002303376
0.002382736
0.002450203
0.002479896
0.002412474
0.00217597
0.002152734
0.002212085
0.002259934
0.002291226
0.002296617
0.002266952
0.002196482
0.002098634
0.002033917
0.002022397
0.002026215
0.002025095
0.002011182
0.001986428
0.001957197
0.001930495
0.001919161
0.001913232
0.001916637
0.001932665
0.001970513
0.002017984
0.002071771
0.00212423
0.002166957
0.002192267
0.002197488
0.00218819
0.002172972
0.002157024
0.002145539
0.002146808
0.002169898
0.002216079
0.002278927
0.00236068
0.002442648
0.002480274
0.002421162
0.002073301
0.002125801
0.002181798
0.0022272
0.002264815
0.002286115
0.002280927
0.002236816
0.002148046
0.002036674
0.00197788
0.001964189
0.001961323
0.001956665
0.001943571
0.001926767
0.001909312
0.001898312
0.001893791
0.001902825
0.001923917
0.001957081
0.001989981
0.002026689
0.002061354
0.002085848
0.002092294
0.002079917
0.002059709
0.002048691
0.002051602
0.002072563
0.002118765
0.002191736
0.002283419
0.002375293
0.002451001
0.002493187
0.002494437
0.002394142
0.00207817
0.002140233
0.002164147
0.002198799
0.002241781
0.002275013
0.002284895
0.002258086
0.002183476
0.00206903
0.001970195
0.001926676
0.001910853
0.00190151
0.001894014
0.001887113
0.001880198
0.001875113
0.001874042
0.001884626
0.001909811
0.001939167
0.001959415
0.001978453
0.001992946
0.001995915
0.001980925
0.001952114
0.001931764
0.001943148
0.00198314
0.002045953
0.002130085
0.002233196
0.002350066
0.00246154
0.002547255
0.002585028
0.002559943
0.002417265
0.002143331
0.002170094
0.002149486
0.002177042
0.002225105
0.002262928
0.002276701
0.002256513
0.002191086
0.002084286
0.001973531
0.001912405
0.001878787
0.001858212
0.001842776
0.001838495
0.001840824
0.001846694
0.001854172
0.001866679
0.001889935
0.001911919
0.001922382
0.001926973
0.001925005
0.001910433
0.0018816
0.001856938
0.001855886
0.001900035
0.001974183
0.00205784
0.002150993
0.002255329
0.002369761
0.002482921
0.00258033
0.002626403
0.002593665
0.002447186
0.002178732
0.002188231
0.002147013
0.002176695
0.002225882
0.002260898
0.002269125
0.002244483
0.002179457
0.002076523
0.001964092
0.001900181
0.001857073
0.001826159
0.001803429
0.001796073
0.00180114
0.001811803
0.001826588
0.001844385
0.001864437
0.001879275
0.001882515
0.001875731
0.001862552
0.001842844
0.001829535
0.00183122
0.00185583
0.001911716
0.001988382
0.00206748
0.002154626
0.002252028
0.002358583
0.002468744
0.002566697
0.002610499
0.002571911
0.002440768
0.00218499
0.002186358
0.002152077
0.002187699
0.00223453
0.002262732
0.002261149
0.002226621
0.002157314
0.002052783
0.001937468
0.001877106
0.001841946
0.001809882
0.001778418
0.001765374
0.001770089
0.001782116
0.001797841
0.001820302
0.001840561
0.00185129
0.001849206
0.001832355
0.001816131
0.001813552
0.001828147
0.001850382
0.001884091
0.001933999
0.001994447
0.002062819
0.0021433
0.002235091
0.002338067
0.002447129
0.002539023
0.002577578
0.002539626
0.002420857
0.00217877
0.00217764
0.002155686
0.002195226
0.002236939
0.002255734
0.002243139
0.002200919
0.002128828
0.002027234
0.0019196
0.001866823
0.001850846
0.001826436
0.00177975
0.001752324
0.001753606
0.001764186
0.001779918
0.001804103
0.001825355
0.001834383
0.001829896
0.001804699
0.001794502
0.001809274
0.00183671
0.001866763
0.001904484
0.001945392
0.001990736
0.002052158
0.002128836
0.002219181
0.002322556
0.002430575
0.002515504
0.002551148
0.002513821
0.002406366
0.00216257
0.002160408
0.002149999
0.002190831
0.002224821
0.002231969
0.002209469
0.002163673
0.002092082
0.002002716
0.001919882
0.00186948
0.00184805
0.001831975
0.001794445
0.00176296
0.001754262
0.001759091
0.001772488
0.001796482
0.001816322
0.001824016
0.001819127
0.00178693
0.001782745
0.001808194
0.001842704
0.001878053
0.001914842
0.001947482
0.001987059
0.002045139
0.002121099
0.002213347
0.002317912
0.002421856
0.002498972
0.002524948
0.002485426
0.002394551
0.002128116
0.002123892
0.002124079
0.002164142
0.002190225
0.002186682
0.002159048
0.002112026
0.002047479
0.001979746
0.001921518
0.001875577
0.001843859
0.001822429
0.001800728
0.001780726
0.001768074
0.00176671
0.001777997
0.001794209
0.001808109
0.001810331
0.001794712
0.001770175
0.001785495
0.001823276
0.001860776
0.001892583
0.001921739
0.001951935
0.001991216
0.002048711
0.002126595
0.002220944
0.002323479
0.002419059
0.002480236
0.002493831
0.002459073
0.002390729
0.002077492
0.002070006
0.002076733
0.002112549
0.00213411
0.002126516
0.002097077
0.00205642
0.00201125
0.001968988
0.00192394
0.001882011
0.001849634
0.001826214
0.001808597
0.001794744
0.001786351
0.001781672
0.001786295
0.001799015
0.001812095
0.001816419
0.001801415
0.001787961
0.001809993
0.001852616
0.001887819
0.001915664
0.001940664
0.001969721
0.002009903
0.002068765
0.00214739
0.002239631
0.002334114
0.002413362
0.002458935
0.002470396
0.002462355
0.002409397
0.002022612
0.00202718
0.002028747
0.002056573
0.002072344
0.002064084
0.002044864
0.002022928
0.001999551
0.001970658
0.001932663
0.001892261
0.001859202
0.001835495
0.001819537
0.001807997
0.001800511
0.001794713
0.001797289
0.001809723
0.001829585
0.001838887
0.001827745
0.001824162
0.001848018
0.001882937
0.001912762
0.001940702
0.00196863
0.002002445
0.002047844
0.002109304
0.002184426
0.002267487
0.002349033
0.002418483
0.002468102
0.002497858
0.002521441
0.002459571
0.00198329
0.00200702
0.002016166
0.002035776
0.002038921
0.002031289
0.002024736
0.002016403
0.002001497
0.001977202
0.001942619
0.001903554
0.001868804
0.001845418
0.001828736
0.001819068
0.001813203
0.00180869
0.001811102
0.001825465
0.001847292
0.00185642
0.001855511
0.001864598
0.00188501
0.001905571
0.001928158
0.001958971
0.001996548
0.002042554
0.002098862
0.002164798
0.002237406
0.002314389
0.002393079
0.002468526
0.002534843
0.00258257
0.002621625
0.002537136
0.001968934
0.002001169
0.002011472
0.002023455
0.002025901
0.0020255
0.002028133
0.002023369
0.002008381
0.001983203
0.00194972
0.001911003
0.001875542
0.001850116
0.001835968
0.001828673
0.001824427
0.001822385
0.001823776
0.001836164
0.001853865
0.001868066
0.001882295
0.001901656
0.001913457
0.001919988
0.001937897
0.001975273
0.002025472
0.002085708
0.002154999
0.002229255
0.00230692
0.002389657
0.002477764
0.002562893
0.002635596
0.002684117
0.002722319
0.002626387
0.001971546
0.002012128
0.002023923
0.002028713
0.00203416
0.002035748
0.002032129
0.002018986
0.001999709
0.001976622
0.001950208
0.001919261
0.001886169
0.001865334
0.001855914
0.00184486
0.001835782
0.001830676
0.001831978
0.001842994
0.001862535
0.001886166
0.001909088
0.001925586
0.001929841
0.001933451
0.001952643
0.001997971
0.002058912
0.002131335
0.002215228
0.002303188
0.002394713
0.002489877
0.002583974
0.002664978
0.00272556
0.002755369
0.002774511
0.002699827
0.002006133
0.002043968
0.002050671
0.002048134
0.002048281
0.002040115
0.002024651
0.00200441
0.00198738
0.00197292
0.001957195
0.001936085
0.001912312
0.001895909
0.001883523
0.0018685
0.001852772
0.001845264
0.001850354
0.001868982
0.001892032
0.001913289
0.001927757
0.00193697
0.001942624
0.001951091
0.00197648
0.002027246
0.002094851
0.002182702
0.002284712
0.002389446
0.002494278
0.002592826
0.002676706
0.002738652
0.002771077
0.002763102
0.002752747
0.002726495
0.002059336
0.002081978
0.002085194
0.002078243
0.002071281
0.002051256
0.002028592
0.002011997
0.002005592
0.00200043
0.001990027
0.001972298
0.001952629
0.00193968
0.001927526
0.001910776
0.001891792
0.001883866
0.001892034
0.001912021
0.001929565
0.001939376
0.001941595
0.001947614
0.001960189
0.001978775
0.002010115
0.002059755
0.002139127
0.002251215
0.002369245
0.002482785
0.002585445
0.00267081
0.002734267
0.002769279
0.002766499
0.002725296
0.002685071
0.002697255
0.002120143
0.002129723
0.00213041
0.002122205
0.002108247
0.002080451
0.002058353
0.002050092
0.002051121
0.00204941
0.002039749
0.002023679
0.002009589
0.001998522
0.001986575
0.001970666
0.001953365
0.001943436
0.001948494
0.001962897
0.001970504
0.001967664
0.001961366
0.001967752
0.001991257
0.002024225
0.002062007
0.002119115
0.002222266
0.002343925
0.002461024
0.002565667
0.002652966
0.002718299
0.002756933
0.002762426
0.002729512
0.002662258
0.002599549
0.002628413
0.002190603
0.002199588
0.002200354
0.002193767
0.002174552
0.002140432
0.002112063
0.002098545
0.002095259
0.002090731
0.002081117
0.002068236
0.002057619
0.002049618
0.00204062
0.00202791
0.002013826
0.002004934
0.002007044
0.002014173
0.002014143
0.002006125
0.001999025
0.002010357
0.002047786
0.002099469
0.00215497
0.002231723
0.002333525
0.002442319
0.002544402
0.002631508
0.002698146
0.002739867
0.002751901
0.002730661
0.002672849
0.002586869
0.002510152
0.002540278
0.002258056
0.002282163
0.002282062
0.002275912
0.002243434
0.002194772
0.002145596
0.002110936
0.002097096
0.002090933
0.002082873
0.00207518
0.002072806
0.002073316
0.002072494
0.002069109
0.002063319
0.002059136
0.002060403
0.002063794
0.002064178
0.002061866
0.002064054
0.002086056
0.002137289
0.002206259
0.002279356
0.002358628
0.002445383
0.002534048
0.002615523
0.002681254
0.002724767
0.002741617
0.002728416
0.002683351
0.002605595
0.002508081
0.002426629
0.002455672
0.002301611
0.00235787
0.002339867
0.002313245
0.002256657
0.002186736
0.00211508
0.002062803
0.00204766
0.002051726
0.002054568
0.002057967
0.002065319
0.00207444
0.002084069
0.002091718
0.002097436
0.002101858
0.002106545
0.002112678
0.002122046
0.002135745
0.002156198
0.002192132
0.002251281
0.00232583
0.002401565
0.002473828
0.002544992
0.002613395
0.002673129
0.002716451
0.002736784
0.002729798
0.002693342
0.002627768
0.002534999
0.002432079
0.002352989
0.002383486
0.002286758
0.002369719
0.002320451
0.002267412
0.002197351
0.002123722
0.002049692
0.002003656
0.002013806
0.002053052
0.002084505
0.002104645
0.002115025
0.002112831
0.002104854
0.002107087
0.002117128
0.002130212
0.002143956
0.002160228
0.002186028
0.002222814
0.002265775
0.002314551
0.002373903
0.002442518
0.002511205
0.002573934
0.002630887
0.00268114
0.002720301
0.002741719
0.002739405
0.002709829
0.002652176
0.002568979
0.002464919
0.002360532
0.002287947
0.002320822
0.002223394
0.002297117
0.002233414
0.002182183
0.002143547
0.002119756
0.002110992
0.00212332
0.002162197
0.002205165
0.002233465
0.002243488
0.002235282
0.00221044
0.002177355
0.002147048
0.002132762
0.002142445
0.002167155
0.002201227
0.002249919
0.002313302
0.002379229
0.002438658
0.002494082
0.002551206
0.002608727
0.00266053
0.002704692
0.002739302
0.002760017
0.002761099
0.002737445
0.002686687
0.002609704
0.002511081
0.002397793
0.002292977
0.00222734
0.002266394
0.002150575
0.002195781
0.002182831
0.002212733
0.002258548
0.002288105
0.00229916
0.002311497
0.002340713
0.002372541
0.002395838
0.002397744
0.002369292
0.002314633
0.002255951
0.002204314
0.002155069
0.002135435
0.002167294
0.002226444
0.002305295
0.002397619
0.00248613
0.002555336
0.002606497
0.002651148
0.002695561
0.002736505
0.00276987
0.002791338
0.00279584
0.002778226
0.002734735
0.002664401
0.0025699
0.002457543
0.002335595
0.00222876
0.002165744
0.002208223
0.002174106
0.002268031
0.002311729
0.002374682
0.002436763
0.002465643
0.00246762
0.002463213
0.002470208
0.002485575
0.002503252
0.002505835
0.00247406
0.002399602
0.002312287
0.00225191
0.002192091
0.002122446
0.002140529
0.00222871
0.002346394
0.002472453
0.002584582
0.002664284
0.002712004
0.002744527
0.0027753
0.002804732
0.00282762
0.002837234
0.002826499
0.002791293
0.002729514
0.002641707
0.002532321
0.002409009
0.002280671
0.002172374
0.002111785
0.00215556
0.002230644
0.002375641
0.002439005
0.002496653
0.002543199
0.00255758
0.002546783
0.002526504
0.002517951
0.002521615
0.002533684
0.002540334
0.002522068
0.002453256
0.002343194
0.002268642
0.002222178
0.002142811
0.002101191
0.002210072
0.002372232
0.002536977
0.002674213
0.002766026
0.00281265
0.002833899
0.002849162
0.002863754
0.002873097
0.00286759
0.002839878
0.002787179
0.002708676
0.002606286
0.002485974
0.002356256
0.002226726
0.002121794
0.002071891
0.002124901
0.002254892
0.002414801
0.002479283
0.00252091
0.002549628
0.002554551
0.002535912
0.002512941
0.002497701
0.002493156
0.002499618
0.002509598
0.002506881
0.002458315
0.002350354
0.002258219
0.002230761
0.002173512
0.002095684
0.002187871
0.002386354
0.002590659
0.002751906
0.002857752
0.002907505
0.002919761
0.002918351
0.002913233
0.002901981
0.002873695
0.002824619
0.00275238
0.002657966
0.002544118
0.002417762
0.002287667
0.002164965
0.002071572
0.002043686
0.002118064
0.002222511
0.002369283
0.002423463
0.002452877
0.002475999
0.002479149
0.002466283
0.002445513
0.002425907
0.002414987
0.002417629
0.002431864
0.002444666
0.002423119
0.002341633
0.002236814
0.002218423
0.002202456
0.002145849
0.002174319
0.00240333
0.002634288
0.00281942
0.002938422
0.002993085
0.002998732
0.002979357
0.002948612
0.002905913
0.002848407
0.002774858
0.002683443
0.002575391
0.002453536
0.002326291
0.002203084
0.002097479
0.002025524
0.002028752
0.002120965
0.002144936
0.002258889
0.002297936
0.002328659
0.002357975
0.002370955
0.002366085
0.002347914
0.002325691
0.002311026
0.00231321
0.002333093
0.002361556
0.002367841
0.002326739
0.002229153
0.002203143
0.002218465
0.002200466
0.002180593
0.002424078
0.002670562
0.002880133
0.003010654
0.003068502
0.003065604
0.003024127
0.002958644
0.002878463
0.00279059
0.002693915
0.00258604
0.002468511
0.002343537
0.002221694
0.002115548
0.00204748
0.002006617
0.002043065
0.002137461
0.002057853
0.002140166
0.002169137
0.002202867
0.002240941
0.002261948
0.002263297
0.002248553
0.002225641
0.00221159
0.002218295
0.002243416
0.002284604
0.002317203
0.00231705
0.002253751
0.002209087
0.002223863
0.002234488
0.002211506
0.002443609
0.002708055
0.002932872
0.003070002
0.003125863
0.003109934
0.003041784
0.002938377
0.002825447
0.00271197
0.002596713
0.002475609
0.00235193
0.002229508
0.002126241
0.002068336
0.002063367
0.002031206
0.002068944
0.00212529
0.002014968
0.002100673
0.002113502
0.002130405
0.002164614
0.002187693
0.002194093
0.002183558
0.002160106
0.002147172
0.002159199
0.002185456
0.002240387
0.002305251
0.002348674
0.002334852
0.002291917
0.002286633
0.00230141
0.002280934
0.002429342
0.002721267
0.002952738
0.003101631
0.003164233
0.003146635
0.003064358
0.002937057
0.002791977
0.00264809
0.002508677
0.002372116
0.00224409
0.002132765
0.002064852
0.002082853
0.002114631
0.002077104
0.002092939
0.002104876
0.002009105
0.002162558
0.002200634
0.002197019
0.002222599
0.002242858
0.002254464
0.002259127
0.002232598
0.00219694
0.002177516
0.002224405
0.002320479
0.002412039
0.002453489
0.002426592
0.002358488
0.002314722
0.002294116
0.002270589
0.002322181
0.002526254
0.002721105
0.002878239
0.002972334
0.002999299
0.002967952
0.002893805
0.002792273
0.002669979
0.002529859
0.002379583
0.002233316
0.002111087
0.002048659
0.002101437
0.002125174
0.002068831
0.002031004
0.001986752
0.002515433
0.002258331
0.002198045
0.002273131
0.002327597
0.0024027
0.002470232
0.002482332
0.002461107
0.002418501
0.002358762
0.002297127
0.002259788
0.002228394
0.002192534
0.002208522
0.002231601
0.002244903
0.002256944
0.002259053
0.002245837
0.00220616
0.002192564
0.002225329
0.002310533
0.002332655
0.00231857
0.002388839
0.002440632
0.002391165
0.002318424
0.002243512
0.002181043
0.002162838
0.00214341
0.002158651
0.002199206
0.002190178
0.00215864
0.002088927
0.00214973
0.003142467
0.003321662
0.003236955
0.003107287
0.003000892
0.003045208
0.003237448
0.003476649
0.003726919
0.003958063
0.004128196
0.004201751
0.00420066
0.004169025
0.004128653
0.004064936
0.003982454
0.003768684
0.003700371
0.003851844
0.004288233
0.004379423
0.00405424
0.003639154
0.004144023
0.005220429
0.005134677
0.004756405
0.004368486
0.004029695
0.003849383
0.003788213
0.003754797
0.003758919
0.003706789
0.003586381
0.003423765
0.003070259
0.002078066
0.002042231
0.003573999
0.004005578
0.004027246
0.003797282
0.003641625
0.003841925
0.004367261
0.004951678
0.005404572
0.005715687
0.005919749
0.006030048
0.006055675
0.00595578
0.005718923
0.005511257
0.005408071
0.00510944
0.00518414
0.005702212
0.006316059
0.006298795
0.00603457
0.00537692
0.00533105
0.007064118
0.007361145
0.006932278
0.006432767
0.005898893
0.005475009
0.005214946
0.005134243
0.005164729
0.005120451
0.004834412
0.004359636
0.003581375
0.002083044
0.002114392
0.003582232
0.004365743
0.004454424
0.004257584
0.004139121
0.004444777
0.005163566
0.005915585
0.006455732
0.006858885
0.007147004
0.007318551
0.00736487
0.00723376
0.006868017
0.006405158
0.006081903
0.005933467
0.006245502
0.007078424
0.007765674
0.007931074
0.007938165
0.007789523
0.006618233
0.00655049
0.007318014
0.007100764
0.006552332
0.006102109
0.005613094
0.005256022
0.005183428
0.005456757
0.005574434
0.005232085
0.004604185
0.003676788
0.002019968
0.002180867
0.0034306
0.004201032
0.004347346
0.004259111
0.004208293
0.004525644
0.00531629
0.006300818
0.007059346
0.007613289
0.008005207
0.008234604
0.008295354
0.008156848
0.007772401
0.007184138
0.006638929
0.006616316
0.007141026
0.00809067
0.008804577
0.009206452
0.009437991
0.009497703
0.008190315
0.006450776
0.006039721
0.005778783
0.005318464
0.004992867
0.004824229
0.00477361
0.004928488
0.005415452
0.005575265
0.005129836
0.004457705
0.00356986
0.002036181
0.002236791
0.003384121
0.004015458
0.004186411
0.004156956
0.004087201
0.004252201
0.004896839
0.006070057
0.007218168
0.008008695
0.008542952
0.008860936
0.008971749
0.00887033
0.008540751
0.008015864
0.007460109
0.007301918
0.007768174
0.008718936
0.009501125
0.01003495
0.01032371
0.01027315
0.009382395
0.007176681
0.005690697
0.004999281
0.004601327
0.004398913
0.004405395
0.004553036
0.004867819
0.005329922
0.005314274
0.004749018
0.004064716
0.003312287
0.002093484
0.002248157
0.003583694
0.004295916
0.004454847
0.004422053
0.004205081
0.004122835
0.004404868
0.005281678
0.006728027
0.008000087
0.00880053
0.009269506
0.009475483
0.009450642
0.009216475
0.00881971
0.008333825
0.007884472
0.008174105
0.009071695
0.009892356
0.01046848
0.01071723
0.01061603
0.01005003
0.00816816
0.00636197
0.005158857
0.004567829
0.00442492
0.004526167
0.004730869
0.004986897
0.00520974
0.0049794
0.004325079
0.003676038
0.003085228
0.002164474
0.002216109
0.003869089
0.004808329
0.005123128
0.005074173
0.00485991
0.004539079
0.004376537
0.004711724
0.005784885
0.007395565
0.008737209
0.009468785
0.00980581
0.009877325
0.009755022
0.00948845
0.008959846
0.00861059
0.008799333
0.009372783
0.01001338
0.0105386
0.01073675
0.01060131
0.01009679
0.008809143
0.007252529
0.006082489
0.005350392
0.005027199
0.005010061
0.005107341
0.005132449
0.004997851
0.004515832
0.003841024
0.003289017
0.002891287
0.002265207
0.002260363
0.003946471
0.005134036
0.005707365
0.006001425
0.005914711
0.005590173
0.005083692
0.00477124
0.005274084
0.006651007
0.008302952
0.009476736
0.009992513
0.01016331
0.01014771
0.009990268
0.009671948
0.009499036
0.009521137
0.009706798
0.009973821
0.01028004
0.01040927
0.01025251
0.009760497
0.008892638
0.007713042
0.006734824
0.006063292
0.005677931
0.005471566
0.005266354
0.004888561
0.004310361
0.003727436
0.003215607
0.002922093
0.002760275
0.002385711
0.002396896
0.003960205
0.005473939
0.006286616
0.006741392
0.007059171
0.007010835
0.006423902
0.005567541
0.005326994
0.006279075
0.008014072
0.009335868
0.01007131
0.01034395
0.01041527
0.01038635
0.01029018
0.01011257
0.009948969
0.00998316
0.009947064
0.00989178
0.00980209
0.009562617
0.009097485
0.00839507
0.007649144
0.006931443
0.006430461
0.006094476
0.005716084
0.005129927
0.004329439
0.003527782
0.003029227
0.002825866
0.002771735
0.002746275
0.002489072
0.002375328
0.004092622
0.005879925
0.006911137
0.007514801
0.007986428
0.008296243
0.008028283
0.00692254
0.00591688
0.006190401
0.00770543
0.00928995
0.01006612
0.01041845
0.01055541
0.01059601
0.01056477
0.01042344
0.01022209
0.01018945
0.01001954
0.009698156
0.009341242
0.008950289
0.008489176
0.007946617
0.007399431
0.006930937
0.006597157
0.006246251
0.005778559
0.00513447
0.004377605
0.003710262
0.003248172
0.00300455
0.002906976
0.002827604
0.00247125
0.002230239
0.004404613
0.006306483
0.007456796
0.008189909
0.008783848
0.00921212
0.009327969
0.008496695
0.006983399
0.00635959
0.007316968
0.008924437
0.009949323
0.01033448
0.01052385
0.01062037
0.01066164
0.01062364
0.01047747
0.0103764
0.01014491
0.009764349
0.009291125
0.008788319
0.008285865
0.007784951
0.007310308
0.006959366
0.006809196
0.00656553
0.006218006
0.005759991
0.005203932
0.00457126
0.003959516
0.00351516
0.003268961
0.003016301
0.002402561
0.002203355
0.004796738
0.0068297
0.007938322
0.008688559
0.009323127
0.009829149
0.01006721
0.00976867
0.008192487
0.006934515
0.007090872
0.008363155
0.009510784
0.01003267
0.01020891
0.01036009
0.01053414
0.01064701
0.01059484
0.01045781
0.01024086
0.009906622
0.009467309
0.008963833
0.008412444
0.007778789
0.007141961
0.007025998
0.007261606
0.007219084
0.007027461
0.006675985
0.006146807
0.005440635
0.004674119
0.004135561
0.003836444
0.003351813
0.002354436
0.00224493
0.005127414
0.007311349
0.008381923
0.009050551
0.00962688
0.01014839
0.01049236
0.01041353
0.009039831
0.007674441
0.007434697
0.008472133
0.009468059
0.009809107
0.009795621
0.009864458
0.01017133
0.0105221
0.01054803
0.01043613
0.01025929
0.009990009
0.009609848
0.009107816
0.008386715
0.007459304
0.007017969
0.00726586
0.007850961
0.007929393
0.007751379
0.007345402
0.006721852
0.005938917
0.005181256
0.004714555
0.004431278
0.003678475
0.00232477
0.002269453
0.005296598
0.00759083
0.008729134
0.009313572
0.009802591
0.01029093
0.01069248
0.01047543
0.009258129
0.008240765
0.008500837
0.009802915
0.01055652
0.01042583
0.009898854
0.009586145
0.009761057
0.01025183
0.01042532
0.01032751
0.01018818
0.009978335
0.009608236
0.008957171
0.007969434
0.007269815
0.007290083
0.007874896
0.008417659
0.008424909
0.00816534
0.007666389
0.006967585
0.006187544
0.005539225
0.005158533
0.004784861
0.003810363
0.00231823
0.002273732
0.005412632
0.007725718
0.008900127
0.009434724
0.009859736
0.0103116
0.01060686
0.01009822
0.009019011
0.008440898
0.009559073
0.01118348
0.01155812
0.01128337
0.01048649
0.009789179
0.0096895
0.01005672
0.0102834
0.010156
0.01003123
0.009863396
0.009451916
0.008730991
0.007892584
0.007640237
0.008096723
0.008689517
0.008819366
0.008680597
0.008319768
0.007752328
0.007046088
0.006348683
0.005824773
0.005453448
0.004936027
0.003769212
0.002338799
0.00225834
0.005383525
0.007709405
0.00886234
0.009361645
0.009756418
0.01013403
0.01012642
0.009586934
0.008717455
0.008385111
0.009595486
0.01131576
0.01175522
0.0116197
0.01111561
0.01048184
0.01016188
0.01025977
0.01015412
0.009929832
0.009771795
0.009597695
0.009216915
0.008691232
0.008259225
0.008329894
0.008792839
0.009008161
0.008975505
0.008724266
0.008290556
0.007711143
0.007073097
0.00649549
0.006050393
0.005627886
0.004865714
0.003614289
0.002365948
0.00222749
0.005153307
0.007537606
0.00854195
0.008993121
0.009345888
0.009533828
0.009522447
0.009138518
0.008622741
0.008597975
0.009472958
0.01074241
0.011523
0.01158015
0.01133698
0.01102387
0.01072894
0.01036532
0.009963221
0.0096108
0.009318659
0.009003113
0.008768907
0.008615137
0.008622009
0.008769511
0.009015024
0.009099758
0.008949679
0.008607582
0.008143589
0.007617517
0.007094947
0.006621473
0.006178382
0.005537932
0.004611833
0.003422374
0.002391364
0.002183198
0.004792954
0.007235145
0.007940321
0.008186301
0.008472648
0.008889498
0.009078119
0.009028796
0.009004032
0.009239829
0.009767917
0.01045766
0.01102251
0.0112699
0.01121903
0.01094853
0.01058984
0.01013627
0.009622098
0.009092137
0.008431197
0.008088635
0.008115999
0.008382687
0.00878643
0.009074108
0.009186463
0.00910835
0.008814803
0.008393401
0.007941689
0.007501879
0.007071614
0.006601405
0.005973801
0.005209624
0.004340146
0.003287697
0.002407214
0.002119011
0.004712842
0.006757168
0.007141587
0.007371916
0.008006664
0.008671983
0.009141587
0.009494172
0.009778673
0.009997481
0.01019487
0.01048921
0.01083373
0.01101472
0.01097384
0.01065868
0.01023157
0.009695164
0.009003599
0.007899439
0.007046301
0.006968232
0.007463973
0.008371507
0.009099388
0.009382745
0.009335808
0.009048613
0.008585571
0.008073565
0.007614737
0.007208508
0.006757224
0.006208895
0.005613467
0.004964445
0.004214911
0.003246381
0.002423074
0.002054586
0.004708046
0.006424618
0.00688975
0.007399276
0.008307963
0.009188827
0.009849635
0.01030491
0.01053258
0.01056938
0.01049523
0.01050945
0.01074282
0.01086143
0.01067431
0.01025643
0.009703971
0.008907752
0.007735111
0.006447647
0.005850448
0.006153746
0.007272514
0.008607064
0.009366432
0.009556802
0.009388539
0.008930573
0.008343032
0.007774439
0.007284096
0.006837533
0.006382098
0.005929813
0.005489086
0.004980083
0.004307131
0.003316136
0.002455046
0.002029414
0.00462593
0.006365671
0.007217174
0.00807814
0.009058925
0.009748954
0.01016551
0.01039961
0.01053425
0.0106245
0.01058047
0.01048572
0.01064995
0.01059933
0.0102812