/*--------------------------------*- C++ -*----------------------------------*\
| =========                 |                                                 |
| \\      /  F ield         | OpenFOAM: The Open Source CFD Toolbox           |
|  \\    /   O peration     | Version:  2212                                  |
|   \\  /    A nd           | Website:  www.openfoam.com                      |
|    \\/     M anipulation  |                                                 |
\*---------------------------------------------------------------------------*/
FoamFile
{
    version     2.0;
    format      ascii;
    arch        "LSB;label=32;scalar=64";
    class       volScalarField;
    location    "2000";
    object      p;
}
// * * * * * * * * * * * * * * * * * * * * * * * * * * * * * * * * * * * * * //

dimensions      [1 -1 -2 0 0 0 0];

internalField   nonuniform List<scalar> 
96000
(
0
0.003401693
0.002674423
0.002411022
0.002605688
0.002681717
0.002525305
0.002343358
0.002089601
0.001772634
0.001427186
0.0009654982
0.0004437596
-0.000141767
-0.0008342625
-0.00178587
-0.002603814
-0.003165436
-0.003390987
-0.003222285
-0.002710789
-0.00189067
-0.0008151398
0.0004273774
0.001846679
0.003025139
0.004116708
0.005488976
0.007012547
0.008354836
0.009516096
0.0103449
0.01106446
0.01176604
0.01247264
0.01341488
0.01462933
0.01543358
0.01509721
0.0130429
0.003783135
0.004746502
0.003850805
0.00334651
0.003281052
0.00310781
0.002866441
0.002631636
0.002283366
0.001866941
0.001391984
0.0008737754
0.0003403146
-0.0002571971
-0.0009284525
-0.001728056
-0.002490106
-0.003115123
-0.003446983
-0.003283869
-0.002761145
-0.001918922
-0.0008160458
0.0004579752
0.001979899
0.003262967
0.004318117
0.005759588
0.007347571
0.008729463
0.009895022
0.01081882
0.01161612
0.0123705
0.01307171
0.01386066
0.01468667
0.01527535
0.01522752
0.01458028
0.002182947
0.002902432
0.002779485
0.002678542
0.002703734
0.002623761
0.002417519
0.00211003
0.001670032
0.001145423
0.0005743851
1.169511e-05
-0.0005104133
-0.001031426
-0.001577135
-0.002216919
-0.00282239
-0.003256239
-0.003415172
-0.003200059
-0.002666651
-0.001845853
-0.0007758198
0.0004679935
0.001980415
0.00343329
0.00465147
0.00589277
0.007465678
0.008907884
0.01013991
0.01114115
0.01198741
0.01275298
0.01343342
0.0140861
0.01474187
0.01535087
0.01572309
0.01568377
0.00096859
0.001368738
0.00157418
0.001675017
0.001825621
0.001861076
0.001711405
0.001401147
0.0009674474
0.0004536239
-9.537367e-05
-0.0006241593
-0.001103235
-0.001567362
-0.002000811
-0.002449609
-0.002893315
-0.003196547
-0.003263287
-0.003005207
-0.002442854
-0.001625887
-0.00058029
0.0006520764
0.00207558
0.003693943
0.005056462
0.006181641
0.007590012
0.009037267
0.0103305
0.01140308
0.01229389
0.01305346
0.01372349
0.01432575
0.01483666
0.01515343
0.01505533
0.01438784
0.0005667931
0.0007949867
0.0008368872
0.0008358787
0.0008956834
0.0009304457
0.000817882
0.0005187196
0.0001094739
-0.0003224707
-0.0007623658
-0.001178224
-0.001553835
-0.001927864
-0.00227289
-0.002595789
-0.00291029
-0.003095903
-0.003048511
-0.002693415
-0.002074103
-0.001242512
-0.0002091599
0.0009730817
0.002305692
0.003808823
0.005342379
0.006597314
0.007780328
0.009160255
0.01044687
0.01152488
0.0124021
0.01311945
0.01375791
0.0143527
0.01486742
0.01517928
0.01501616
0.01416055
9.377792e-05
0.000273789
0.0002754687
0.0002663663
0.0002880916
0.0001766286
-2.673742e-05
-0.0003237276
-0.0007161191
-0.001098842
-0.001426168
-0.001712001
-0.001951568
-0.002190366
-0.002413936
-0.002601903
-0.002763583
-0.002813777
-0.002663444
-0.002215221
-0.001550107
-0.0007191472
0.0002886051
0.001413681
0.002637766
0.004007261
0.00552916
0.007006807
0.008278958
0.009468116
0.01067073
0.01167551
0.01248596
0.01311777
0.01366731
0.01424271
0.01476333
0.0151227
0.0151482
0.01436612
-0.0004937383
-0.0003275038
-0.0002339912
-0.0002441835
-0.0001848851
-0.0002700048
-0.0005691012
-0.001030855
-0.001439939
-0.00178818
-0.002036323
-0.002179939
-0.002266041
-0.002344131
-0.002419353
-0.002453158
-0.002451109
-0.002377333
-0.002113808
-0.001575865
-0.000883381
-6.644847e-05
0.0008988645
0.001949485
0.003067945
0.004286957
0.005617589
0.007065266
0.008418963
0.009588712
0.01069234
0.01167646
0.01248187
0.01306087
0.01347161
0.01398112
0.01451652
0.01495357
0.01508866
0.01411775
-0.0005901909
-0.0003842904
-0.0005138885
-0.0007742979
-0.0009364528
-0.0009510066
-0.001069951
-0.00142488
-0.001947327
-0.002275535
-0.002459052
-0.002488264
-0.00241619
-0.002321917
-0.002235829
-0.00211288
-0.001949921
-0.001747763
-0.001366385
-0.0007810942
-8.424212e-05
0.0006974688
0.001598737
0.002563458
0.003580963
0.00467034
0.005845014
0.007081772
0.008335395
0.009483118
0.01051976
0.01147139
0.01227145
0.01282972
0.01311906
0.01342489
0.01389861
0.01431674
0.01441555
0.01335403
-0.0001749533
-0.0001271933
-0.0005945765
-0.001041246
-0.001402303
-0.001650673
-0.001725113
-0.001829168
-0.002147967
-0.002517103
-0.002635793
-0.002567791
-0.002350804
-0.002084058
-0.001823855
-0.001546748
-0.001242805
-0.0008995286
-0.0004383496
0.0001302887
0.0007985588
0.001525495
0.002350446
0.00322182
0.004127902
0.005096467
0.00613038
0.007212578
0.008307363
0.009353863
0.01031863
0.01119283
0.01192462
0.01242531
0.01263284
0.0126536
0.0128087
0.01305082
0.01309897
0.01260244
0.000106347
0.0001164036
-0.0005010647
-0.001071281
-0.001597598
-0.00199471
-0.002237516
-0.002273452
-0.002319243
-0.002454394
-0.002560055
-0.002396846
-0.00205811
-0.00163467
-0.001215562
-0.0008000238
-0.0003777274
6.049528e-05
0.0005363031
0.0010619
0.001673468
0.002347233
0.003093301
0.003871231
0.00465569
0.005489439
0.00638195
0.0073128
0.008251651
0.009169007
0.01003804
0.01084184
0.01152129
0.01200195
0.01219638
0.01211893
0.01196537
0.01189891
0.01190969
0.01182163
0.0001432168
0.0002226979
-0.0003721017
-0.0009720231
-0.00156318
-0.002059792
-0.002391976
-0.002522807
-0.002432971
-0.002289113
-0.002208264
-0.001998982
-0.001549016
-0.0009983518
-0.0004551612
5.009567e-05
0.0005330359
0.001000389
0.001475883
0.001961832
0.002516073
0.003131732
0.003794359
0.00447126
0.005122193
0.005803046
0.006539627
0.007314707
0.008097615
0.008872803
0.009636842
0.01038452
0.01104435
0.0115388
0.01179679
0.01181807
0.01163356
0.01133492
0.01100927
0.0107839
-5.814379e-05
-2.196408e-06
-0.0004344641
-0.0009451613
-0.001504282
-0.001981325
-0.00232266
-0.00246698
-0.002390066
-0.002039505
-0.001709925
-0.001389801
-0.0008487369
-0.0001909002
0.0004424437
0.00101185
0.001528463
0.00199889
0.002431565
0.002859598
0.00334202
0.003872596
0.004435044
0.00499136
0.005492766
0.006006064
0.006572011
0.007178069
0.007798363
0.00842915
0.009071266
0.009724657
0.01031166
0.01076447
0.01099786
0.01098061
0.01070167
0.01026173
0.009732385
0.009340188
-0.0005700181
-0.0004697958
-0.0006755063
-0.001049137
-0.001520925
-0.001902414
-0.002141669
-0.002213966
-0.002076376
-0.001647379
-0.00110136
-0.0005887745
1.397157e-05
0.0007692511
0.001455479
0.002051729
0.002566264
0.003010496
0.00338698
0.003752698
0.004151926
0.004579934
0.005012735
0.005421
0.005757092
0.00609137
0.006468565
0.006889574
0.007352082
0.007839328
0.008333464
0.008850664
0.009305575
0.009628337
0.009756033
0.009662905
0.009342018
0.008831504
0.008260628
0.007846769
-0.001112858
-0.0009525192
-0.0009744796
-0.001234361
-0.001581243
-0.001828997
-0.001917232
-0.001842075
-0.001576254
-0.001052399
-0.0003526063
0.0003010966
0.0009871207
0.001826303
0.002546353
0.003135596
0.003611455
0.004000232
0.004315979
0.004612535
0.00491914
0.005223688
0.00551475
0.005765389
0.005925546
0.006070686
0.006236173
0.006467996
0.006769689
0.00711668
0.007458395
0.007812241
0.008099125
0.008264131
0.008266859
0.008094164
0.007746334
0.007274893
0.006753763
0.006438986
-0.00151467
-0.001353207
-0.001270701
-0.00142845
-0.001636463
-0.001733304
-0.00164874
-0.00139687
-0.0009638669
-0.000313455
0.0004675308
0.001195779
0.001971614
0.002881112
0.003625243
0.00420094
0.004627016
0.004942563
0.00518382
0.00540055
0.005607598
0.005785883
0.005934469
0.006024977
0.006009793
0.00594601
0.005905913
0.005955915
0.006099166
0.006299813
0.006487505
0.006661517
0.00676885
0.006776224
0.006656211
0.006408181
0.006040558
0.005623881
0.005196472
0.005021518
-0.001776615
-0.001634987
-0.001510601
-0.001572889
-0.001647782
-0.001586315
-0.001327622
-0.0008941279
-0.0002938626
0.0004765475
0.001281599
0.002051695
0.00291608
0.003866712
0.004618482
0.00517439
0.005554476
0.005797619
0.005958787
0.006094272
0.006202846
0.006261703
0.006273707
0.006209868
0.006027527
0.005772838
0.005547847
0.005420627
0.005394546
0.005414299
0.005428969
0.005416898
0.00535087
0.005212406
0.004978599
0.004657009
0.004272573
0.003923983
0.003601203
0.003540507
-0.001920904
-0.001822345
-0.001637494
-0.00159886
-0.001553013
-0.001348208
-0.0009327245
-0.000333088
0.0003946399
0.001221802
0.002026126
0.002861224
0.003794532
0.004751634
0.005492418
0.006020278
0.006361407
0.006547842
0.006641653
0.006686651
0.006683911
0.006626916
0.006517701
0.006322858
0.005985703
0.005567359
0.005170656
0.004857771
0.004634784
0.004459144
0.004290347
0.004102001
0.003875256
0.00359996
0.003261687
0.002880758
0.002520997
0.002241508
0.002007651
0.002002039
-0.001974178
-0.001947134
-0.001641276
-0.00149266
-0.00134245
-0.00101641
-0.0004613458
0.0002538031
0.001046973
0.0018773
0.002732574
0.003672699
0.00463467
0.005542663
0.006243446
0.006739407
0.007038537
0.007177476
0.007200593
0.007134017
0.006996743
0.006816088
0.006612449
0.00629935
0.005828954
0.005288587
0.004737593
0.004244356
0.003824796
0.003455238
0.003108284
0.002757495
0.002382805
0.001981691
0.001567933
0.001185405
0.0008582788
0.0006015012
0.0004116217
0.0004032886
-0.001891778
-0.001910421
-0.001502091
-0.001248489
-0.001021174
-0.000591992
4.544604e-05
0.0008032486
0.001634297
0.002537795
0.003497071
0.004469434
0.005383101
0.0062036
0.006852783
0.00730413
0.007556391
0.007634199
0.007565171
0.007375973
0.007109326
0.006816491
0.006526303
0.006121167
0.005554572
0.004929844
0.004260048
0.003600118
0.002987768
0.002431932
0.001922277
0.001437691
0.0009501747
0.0004654104
1.301437e-05
-0.0003795635
-0.0007276927
-0.0009970093
-0.001170534
-0.001197205
-0.001803142
-0.001851139
-0.001390072
-0.001067109
-0.0006958086
-0.0001456961
0.0005535133
0.001370338
0.002297045
0.003293412
0.004275033
0.005179617
0.005996554
0.006703999
0.00726854
0.007664726
0.007858812
0.007862028
0.007703649
0.007414933
0.007040336
0.006669068
0.006310368
0.005834944
0.005203166
0.004502967
0.003733326
0.002938585
0.002159123
0.001433699
0.0007803587
0.0001805859
-0.0003966326
-0.0009423309
-0.001439137
-0.001880432
-0.002255218
-0.002522957
-0.002657941
-0.002681659
-0.001486363
-0.001359592
-0.0009163171
-0.0006495242
-0.0001881309
0.0004474618
0.001198336
0.002074085
0.003039699
0.004026091
0.004946576
0.005743378
0.00642685
0.007014253
0.007465902
0.007779057
0.00790052
0.007839493
0.007608417
0.007233694
0.006784209
0.006382715
0.005978662
0.005441371
0.004767589
0.004009772
0.003172955
0.002286481
0.00137854
0.0005123478
-0.0002665381
-0.0009856866
-0.001660453
-0.00227738
-0.002826691
-0.003298769
-0.003667934
-0.003897157
-0.003968629
-0.00397465
-0.0009509085
-0.0006486851
-0.0001477675
0.0001497959
0.0006851531
0.00134355
0.00207178
0.002896535
0.00377878
0.004649553
0.005438627
0.006083644
0.00659995
0.007055046
0.007436372
0.007641507
0.00769267
0.007575646
0.007283959
0.006845164
0.006370403
0.005975545
0.005522628
0.004936173
0.004241118
0.003460818
0.00259861
0.001666594
0.0006783091
-0.0002874091
-0.001175464
-0.002014192
-0.002786431
-0.003472891
-0.004061505
-0.004539604
-0.004879865
-0.005052558
-0.005063283
-0.0050624
-0.0004394818
9.550008e-05
0.0007271575
0.001036857
0.001594416
0.002223565
0.002873746
0.003585195
0.004329373
0.005052604
0.005688214
0.006156254
0.006463
0.006762636
0.007086746
0.007260307
0.007256671
0.007087989
0.006746567
0.006278322
0.005824738
0.005431655
0.004947786
0.004338979
0.003637048
0.002869444
0.002015993
0.001080762
7.797506e-05
-0.0009259307
-0.001901793
-0.002842911
-0.00369462
-0.004431753
-0.005039919
-0.005511002
-0.005821457
-0.005945303
-0.005909162
-0.005922323
-0.0001503172
0.000818999
0.001466751
0.001809926
0.002339835
0.002905963
0.003457771
0.004035647
0.00461891
0.005170456
0.005635542
0.005925431
0.006053808
0.006224437
0.006476579
0.00663592
0.006605896
0.006397495
0.00602888
0.005574738
0.005158128
0.004766673
0.004282049
0.003679782
0.002988871
0.002245575
0.001431857
0.0005442741
-0.0004022135
-0.00140906
-0.00245139
-0.003447579
-0.004342415
-0.005108034
-0.005723884
-0.006184122
-0.006472944
-0.006564524
-0.006483283
-0.006520145
0.0004372461
0.001674536
0.0021966
0.002526956
0.002979286
0.003449002
0.003876015
0.004295094
0.004694474
0.005049554
0.005311981
0.005422506
0.005432646
0.005522044
0.005723969
0.005837517
0.005761614
0.005526331
0.005164348
0.004757248
0.004381145
0.003999177
0.003537472
0.002975064
0.002329938
0.001630498
0.0008883713
9.163302e-05
-0.0008027149
-0.001803672
-0.002845803
-0.003841092
-0.004741638
-0.005512646
-0.006125118
-0.006568213
-0.006831261
-0.006897812
-0.006788036
-0.006860993
0.001294592
0.002576418
0.002954458
0.003220874
0.00355216
0.003884604
0.004147899
0.004378848
0.004567746
0.004702306
0.004754249
0.004697587
0.004620517
0.004671714
0.004814727
0.004856465
0.004734462
0.004491365
0.004166933
0.003823878
0.003497365
0.003147951
0.002737122
0.002248735
0.001688698
0.001074555
0.0004353831
-0.0002699432
-0.001125711
-0.002089037
-0.003082299
-0.004042722
-0.004919497
-0.005667234
-0.006251825
-0.006655423
-0.006875015
-0.006905689
-0.00677348
-0.006898266
0.002249298
0.003472073
0.003721688
0.003902588
0.004074563
0.004227858
0.004291701
0.004305363
0.004268578
0.004190794
0.004072333
0.003882353
0.003706935
0.003691728
0.003741579
0.003696569
0.003541235
0.003313135
0.003045976
0.002777957
0.002518589
0.002236888
0.001912662
0.001531459
0.001090607
0.0006020289
8.105797e-05
-0.0005564923
-0.001352528
-0.002231667
-0.003143779
-0.004035256
-0.004854833
-0.005550918
-0.006081882
-0.006427739
-0.006595165
-0.006571101
-0.0063728
-0.006477868
0.003256163
0.004286201
0.004440622
0.004536042
0.004532994
0.004486752
0.004337248
0.004142605
0.003932138
0.003716169
0.003483468
0.003206639
0.00295128
0.002783211
0.00261431
0.002422901
0.002216552
0.002006626
0.001806634
0.001629393
0.001466876
0.001291724
0.001087667
0.0008406255
0.0005429668
0.0001983683
-0.0002076796
-0.0007589712
-0.00144371
-0.00221016
-0.003015984
-0.003812195
-0.004547408
-0.00516817
-0.005629998
-0.00591673
-0.006043929
-0.005992566
-0.005778174
-0.005929479
0.004318417
0.005001691
0.005092225
0.005087273
0.004925302
0.004700032
0.004397297
0.004096743
0.00381756
0.003526574
0.003186677
0.002797023
0.002393451
0.002015383
0.001605234
0.001180669
0.0008330265
0.0006022882
0.000465871
0.0003958235
0.0003602448
0.0003246301
0.0002655712
0.0001687498
2.388304e-05
-0.0001741326
-0.000451844
-0.0008694494
-0.001411047
-0.002038789
-0.002714822
-0.003393308
-0.004022374
-0.004549545
-0.00493296
-0.005156507
-0.005240978
-0.005164237
-0.004953894
-0.005176619
0.005299275
0.005660123
0.005687495
0.005590305
0.005314278
0.004971154
0.004627665
0.004282704
0.003868221
0.003368078
0.002792983
0.002174839
0.001567986
0.001038508
0.0005203359
-3.334433e-05
-0.0005133342
-0.0008292744
-0.0009281953
-0.0008850073
-0.0007774829
-0.0006573029
-0.0005595444
-0.0004998875
-0.0004882224
-0.0005349886
-0.000663577
-0.00091251
-0.001284525
-0.001752416
-0.002279909
-0.002822454
-0.003329847
-0.003751576
-0.004047971
-0.004200688
-0.004227546
-0.004108816
-0.003879117
-0.004127966
0.006160413
0.0063628
0.006338345
0.006167702
0.005840489
0.005444803
0.004973338
0.004408701
0.003709965
0.002904882
0.002051807
0.001202621
0.0004108906
-0.0002665758
-0.0008
-0.001319156
-0.001803569
-0.002173561
-0.002288299
-0.002152319
-0.001908086
-0.001637676
-0.001385647
-0.001170996
-0.001000956
-0.0008887182
-0.0008560644
-0.0009284738
-0.001113849
-0.001406426
-0.001770754
-0.002163077
-0.00253581
-0.002840746
-0.003040004
-0.003111853
-0.00306855
-0.002906318
-0.002642625
-0.00287837
0.006899395
0.007034994
0.006943371
0.006686689
0.006264574
0.005712895
0.00503145
0.004237746
0.003326598
0.002317166
0.001261946
0.0002250365
-0.0007271984
-0.001554045
-0.002192039
-0.002661247
-0.003020227
-0.003347118
-0.003490008
-0.003327006
-0.002980995
-0.002587589
-0.002197095
-0.001837037
-0.001512498
-0.001239956
-0.00104076
-0.0009388099
-0.0009427836
-0.001053438
-0.00124517
-0.001476357
-0.001703924
-0.001882896
-0.001978003
-0.001965005
-0.001853527
-0.001672883
-0.001405989
-0.001666363
0.007435737
0.007515877
0.007373728
0.007008709
0.006454755
0.005750424
0.004925777
0.003977663
0.002909006
0.001747583
0.0005437358
-0.0006291016
-0.001707185
-0.002655332
-0.003395611
-0.003920072
-0.004165548
-0.004306753
-0.004444749
-0.004329034
-0.003950242
-0.003472901
-0.002971999
-0.002482414
-0.002013827
-0.00158668
-0.001225199
-0.0009534904
-0.0007878768
-0.0007231136
-0.0007430747
-0.0008102496
-0.0008878927
-0.0009366462
-0.0009275302
-0.0008365169
-0.0006752501
-0.0005198817
-0.0003426779
-0.0007076745
0.007894118
0.007885445
0.007668184
0.007228147
0.006609331
0.00580017
0.004848072
0.003772793
0.002579506
0.001310702
1.802121e-05
-0.001233069
-0.002391782
-0.003441759
-0.004273948
-0.004889658
-0.005219252
-0.005174511
-0.005170902
-0.005099046
-0.004786107
-0.004266495
-0.003683214
-0.003085415
-0.002489548
-0.001922021
-0.001409545
-0.0009790455
-0.0006506737
-0.0004185999
-0.0002722836
-0.0001809802
-0.0001135337
-3.549547e-05
7.060285e-05
0.0002264763
0.0004203063
0.0005490086
0.000627788
0.0001814634
0.008351026
0.008297706
0.008043769
0.007516182
0.006813371
0.00590776
0.004854496
0.003683429
0.002409721
0.001086031
-0.0002366875
-0.0015142
-0.002708493
-0.003838865
-0.004754827
-0.005482462
-0.005922975
-0.006051936
-0.005771618
-0.005588507
-0.005468739
-0.0049441
-0.004300652
-0.003617917
-0.002914088
-0.002226292
-0.001581209
-0.001009048
-0.0005326797
-0.000143488
0.0001605199
0.000398742
0.0005954036
0.0007835584
0.0009661832
0.001168494
0.001397536
0.001559508
0.001633342
0.001269067
0.008855918
0.008778073
0.008467643
0.007859654
0.007084355
0.006099355
0.004965942
0.003738191
0.002435029
0.001121159
-0.0001639117
-0.001427732
-0.002633949
-0.003844231
-0.004842837
-0.005682149
-0.006281751
-0.006622248
-0.006388042
-0.006082506
-0.005909985
-0.005479807
-0.004778279
-0.004043425
-0.003259957
-0.002481539
-0.001734187
-0.001048311
-0.0004418956
9.019268e-05
0.000533384
0.0008968541
0.001198104
0.001468297
0.001698649
0.001928709
0.002184702
0.002410637
0.00250917
0.002236709
0.009379626
0.009338051
0.008964079
0.008263027
0.007414139
0.006363518
0.005178014
0.003931237
0.002648884
0.001421778
0.000250181
-0.0009724276
-0.00219313
-0.003504911
-0.004602675
-0.00556244
-0.006295819
-0.006867033
-0.00688744
-0.006428521
-0.006073942
-0.00582729
-0.005091993
-0.004339861
-0.003514516
-0.002684596
-0.001872995
-0.001102793
-0.0003913787
0.0002520763
0.0008048095
0.001261496
0.001630045
0.001945251
0.002194357
0.002431426
0.002691685
0.002960656
0.003132629
0.002952995
0.009811237
0.009874367
0.009454024
0.008650824
0.007736045
0.006653137
0.005443711
0.004205416
0.002979258
0.001913755
0.000939043
-0.0002451706
-0.001521943
-0.002985298
-0.004198773
-0.005273584
-0.006117782
-0.006845852
-0.00715395
-0.006647908
-0.006173619
-0.005974107
-0.005256401
-0.004501217
-0.003671534
-0.002827035
-0.001989098
-0.00117115
-0.0003980753
0.0003167078
0.0009503914
0.001478725
0.001891971
0.002241889
0.002512452
0.002776229
0.003088757
0.003465037
0.003764553
0.003717683
0.01000442
0.01008284
0.009727234
0.00891846
0.007984663
0.006912975
0.00570887
0.004496659
0.003331479
0.002440419
0.00169487
0.0006001451
-0.0008177202
-0.002480416
-0.003816091
-0.005022631
-0.005968038
-0.006695363
-0.007138481
-0.006663725
-0.006158149
-0.005854698
-0.005281258
-0.00455238
-0.003757558
-0.002927947
-0.002087187
-0.001246467
-0.0004342074
0.0003403073
0.001044326
0.001611149
0.002012935
0.002372215
0.002681801
0.002944761
0.003223749
0.00371425
0.004093217
0.003713595
0.009737413
0.009749136
0.009550653
0.008828847
0.007948577
0.006948538
0.005739582
0.004472759
0.003207643
0.002178894
0.001509062
0.0007391146
-0.0006853495
-0.002378644
-0.003745908
-0.004997561
-0.006030628
-0.006756337
-0.007082411
-0.006668835
-0.006212071
-0.005793584
-0.005311328
-0.004630391
-0.003886779
-0.003092996
-0.002280318
-0.001466173
-0.0006810432
7.439129e-05
0.0007993819
0.001352299
0.001697116
0.001983907
0.002297536
0.002645493
0.003103192
0.003638677
0.004113389
0.003809886
-9.962666
-9.961114
-9.961846
-9.961806
-9.961248
-9.960933
-9.961055
-9.961256
-9.961551
-9.961959
-9.962487
-9.963268
-9.964136
-9.964862
-9.965288
-9.965803
-9.966242
-9.96653
-9.966503
-9.966199
-9.965652
-9.964875
-9.963863
-9.962625
-9.96098
-9.959398
-9.958169
-9.95689
-9.95542
-9.953959
-9.952786
-9.951954
-9.951411
-9.950976
-9.95052
-9.949727
-9.948521
-9.947566
-9.947673
-9.947872
-9.96108
-9.961004
-9.961425
-9.961446
-9.961068
-9.960911
-9.961039
-9.961292
-9.961751
-9.962303
-9.962943
-9.963646
-9.96434
-9.965002
-9.965559
-9.966064
-9.966483
-9.966767
-9.966779
-9.966402
-9.965822
-9.965036
-9.964008
-9.962742
-9.961026
-9.959351
-9.958172
-9.956904
-9.955359
-9.953903
-9.952723
-9.951782
-9.951044
-9.950439
-9.949892
-9.949237
-9.948461
-9.947784
-9.947683
-9.947608
-9.962244
-9.961964
-9.961943
-9.961812
-9.961527
-9.961445
-9.961589
-9.961908
-9.962399
-9.962986
-9.963622
-9.964277
-9.964919
-9.965538
-9.966075
-9.966511
-9.966792
-9.966907
-9.966803
-9.966411
-9.965803
-9.965006
-9.963993
-9.962758
-9.961149
-9.959287
-9.957985
-9.956728
-9.95521
-9.953713
-9.952435
-9.951408
-9.950606
-9.949936
-9.949359
-9.948802
-9.948253
-9.947681
-9.947413
-9.947524
-9.962789
-9.962713
-9.962505
-9.96237
-9.962157
-9.96211
-9.962263
-9.96257
-9.962987
-9.963488
-9.964052
-9.964643
-9.965227
-9.965786
-9.966247
-9.966589
-9.966804
-9.966855
-9.966714
-9.966267
-9.965602
-9.964802
-9.963811
-9.96259
-9.961118
-9.959283
-9.957616
-9.956392
-9.954965
-9.953525
-9.952241
-9.951189
-9.950356
-9.949674
-9.94909
-9.948587
-9.948177
-9.947899
-9.948029
-9.94843
-9.962765
-9.962849
-9.962797
-9.962764
-9.96271
-9.962772
-9.962963
-9.963279
-9.963679
-9.964102
-9.964551
-9.965016
-9.965471
-9.9659
-9.966247
-9.966484
-9.96661
-9.96658
-9.966366
-9.965876
-9.965203
-9.964427
-9.963463
-9.96229
-9.960913
-9.959303
-9.957434
-9.955974
-9.95469
-9.953312
-9.95205
-9.951003
-9.950177
-9.949528
-9.948993
-9.948518
-9.948146
-9.947917
-9.94801
-9.948247
-9.963071
-9.963153
-9.963039
-9.962976
-9.963026
-9.963276
-9.963585
-9.963949
-9.964353
-9.96472
-9.965053
-9.965371
-9.965665
-9.965926
-9.96612
-9.966217
-9.966208
-9.966063
-9.965761
-9.965256
-9.964645
-9.963923
-9.963012
-9.961907
-9.960624
-9.95916
-9.957431
-9.95558
-9.954134
-9.952889
-9.951729
-9.950753
-9.949971
-9.949375
-9.948891
-9.948473
-9.948146
-9.947967
-9.947909
-9.94808
-9.963671
-9.963762
-9.963628
-9.963531
-9.963458
-9.96359
-9.963964
-9.964451
-9.964894
-9.965241
-9.96547
-9.965627
-9.965744
-9.965822
-9.965842
-9.965772
-9.965615
-9.965349
-9.964927
-9.964498
-9.964004
-9.963331
-9.962479
-9.961457
-9.960277
-9.958954
-9.957453
-9.955749
-9.954049
-9.952654
-9.95156
-9.950641
-9.949866
-9.949276
-9.948803
-9.948507
-9.948269
-9.948177
-9.948262
-9.948619
-9.963969
-9.964028
-9.964063
-9.964047
-9.964101
-9.96413
-9.964245
-9.96465
-9.965178
-9.965541
-9.965708
-9.965719
-9.96565
-9.96554
-9.965383
-9.965137
-9.964823
-9.964409
-9.964009
-9.963741
-9.963311
-9.962675
-9.961893
-9.960966
-9.959891
-9.95869
-9.957371
-9.955932
-9.954454
-9.953075
-9.951894
-9.950891
-9.95005
-9.949392
-9.948845
-9.948622
-9.948554
-9.948666
-9.949058
-9.949497
-9.963699
-9.964112
-9.964238
-9.964329
-9.9645
-9.964673
-9.964754
-9.964815
-9.965147
-9.965567
-9.965701
-9.965595
-9.965358
-9.965066
-9.964747
-9.964365
-9.963926
-9.963478
-9.963214
-9.962976
-9.962556
-9.961969
-9.961276
-9.960458
-9.9595
-9.958418
-9.957238
-9.955987
-9.954691
-9.953445
-9.9523
-9.951263
-9.950359
-9.949609
-9.949007
-9.948757
-9.948845
-9.949243
-9.949853
-9.950026
-9.963852
-9.964125
-9.964335
-9.964499
-9.964722
-9.96496
-9.965124
-9.965133
-9.965024
-9.965255
-9.96542
-9.965236
-9.964856
-9.964412
-9.963965
-9.963522
-9.963089
-9.96272
-9.962443
-9.962149
-9.961748
-9.961236
-9.960651
-9.959963
-9.95914
-9.958196
-9.957153
-9.956049
-9.954922
-9.953817
-9.952759
-9.95174
-9.950811
-9.950015
-9.949354
-9.948926
-9.949078
-9.94961
-9.950117
-9.95043
-9.963916
-9.964115
-9.964364
-9.964555
-9.964798
-9.965038
-9.965218
-9.965239
-9.964982
-9.964735
-9.96482
-9.96463
-9.964155
-9.963589
-9.963051
-9.962574
-9.962163
-9.961823
-9.961525
-9.961231
-9.960887
-9.960484
-9.960034
-9.959498
-9.958828
-9.958042
-9.957157
-9.956202
-9.955224
-9.954278
-9.95335
-9.952434
-9.95159
-9.950887
-9.950389
-9.950105
-9.950177
-9.95054
-9.95093
-9.951215
-9.963964
-9.964125
-9.964384
-9.964578
-9.964795
-9.964985
-9.965092
-9.96506
-9.964769
-9.964213
-9.963942
-9.963761
-9.963252
-9.962605
-9.962001
-9.961499
-9.961099
-9.96078
-9.960513
-9.960268
-9.960015
-9.95974
-9.959444
-9.959079
-9.958582
-9.95797
-9.957254
-9.956461
-9.955655
-9.954887
-9.954107
-9.95332
-9.952608
-9.952036
-9.951671
-9.951534
-9.951638
-9.951909
-9.952201
-9.952468
-9.964221
-9.964288
-9.964477
-9.96461
-9.964747
-9.964832
-9.964813
-9.964655
-9.964281
-9.963623
-9.962942
-9.962629
-9.962146
-9.961465
-9.960838
-9.960336
-9.959965
-9.959692
-9.959491
-9.959327
-9.959182
-9.959042
-9.958904
-9.958722
-9.958413
-9.957983
-9.957438
-9.956821
-9.956206
-9.955636
-9.955021
-9.954386
-9.953829
-9.953406
-9.953169
-9.953127
-9.953269
-9.953529
-9.953779
-9.953952
-9.964507
-9.964507
-9.964599
-9.964665
-9.964679
-9.96462
-9.964439
-9.964117
-9.963606
-9.962844
-9.961886
-9.961316
-9.960843
-9.960163
-9.95956
-9.959106
-9.958805
-9.958611
-9.958499
-9.958436
-9.958414
-9.958421
-9.958441
-9.958441
-9.958321
-9.958074
-9.957718
-9.957293
-9.956886
-9.956493
-9.956043
-9.955579
-9.955188
-9.954919
-9.954803
-9.954839
-9.955008
-9.955242
-9.955447
-9.955527
-9.964704
-9.964733
-9.96473
-9.964695
-9.964578
-9.964363
-9.964007
-9.963507
-9.962822
-9.961903
-9.960766
-9.960022
-9.959482
-9.958775
-9.958207
-9.957832
-9.957639
-9.957566
-9.957566
-9.957624
-9.95774
-9.957896
-9.958071
-9.958241
-9.958305
-9.958249
-9.958101
-9.957896
-9.957676
-9.957429
-9.957141
-9.956855
-9.956632
-9.956509
-9.956506
-9.956614
-9.956809
-9.957002
-9.957146
-9.957129
-9.964803
-9.964876
-9.964809
-9.964678
-9.964431
-9.964056
-9.963532
-9.962845
-9.96197
-9.960875
-9.959632
-9.958861
-9.958216
-9.957465
-9.956902
-9.95659
-9.956508
-9.956579
-9.956722
-9.956919
-9.957176
-9.957478
-9.957804
-9.958129
-9.958364
-9.958498
-9.958565
-9.958563
-9.958508
-9.958416
-9.958302
-9.958198
-9.958136
-9.958146
-9.958246
-9.958421
-9.958635
-9.958781
-9.958861
-9.958759
-9.964801
-9.964936
-9.964792
-9.964565
-9.964196
-9.963681
-9.962996
-9.96212
-9.961073
-9.959828
-9.958501
-9.957671
-9.956993
-9.95629
-9.955772
-9.955518
-9.955531
-9.955725
-9.95601
-9.956352
-9.956751
-9.957186
-9.957643
-9.958094
-9.958486
-9.958804
-9.959057
-9.959241
-9.959365
-9.959451
-9.959519
-9.959587
-9.959674
-9.959804
-9.959991
-9.960213
-9.960419
-9.960528
-9.960556
-9.960414
-9.964722
-9.964938
-9.964691
-9.964353
-9.963871
-9.963231
-9.962383
-9.961354
-9.960179
-9.958841
-9.957505
-9.956543
-9.955819
-9.955215
-9.954813
-9.954664
-9.954769
-9.955058
-9.955459
-9.955932
-9.956459
-9.957009
-9.957566
-9.958128
-9.95866
-9.959151
-9.959576
-9.959941
-9.960252
-9.960521
-9.960761
-9.960984
-9.961203
-9.961439
-9.961691
-9.961926
-9.962117
-9.962216
-9.962235
-9.962121
-9.964538
-9.96475
-9.964462
-9.964019
-9.963449
-9.962672
-9.961698
-9.960585
-9.959348
-9.958036
-9.956782
-9.955686
-9.954831
-9.954283
-9.954006
-9.953982
-9.95419
-9.954565
-9.955061
-9.955643
-9.956276
-9.956912
-9.957552
-9.958219
-9.958891
-9.959543
-9.960133
-9.96067
-9.961158
-9.961598
-9.961993
-9.962342
-9.962668
-9.962984
-9.963281
-9.963527
-9.963732
-9.963865
-9.96393
-9.963857
-9.964439
-9.964551
-9.96418
-9.963628
-9.96292
-9.962032
-9.961018
-9.959897
-9.958699
-9.957467
-9.956255
-9.9551
-9.954142
-9.953584
-9.953378
-9.95347
-9.953785
-9.954249
-9.954835
-9.955507
-9.956232
-9.95693
-9.957641
-9.958405
-9.9592
-9.959989
-9.960726
-9.961413
-9.962059
-9.962652
-9.963178
-9.963628
-9.964033
-9.964408
-9.964746
-9.965046
-9.965312
-9.965494
-9.965565
-9.965476
-9.964403
-9.964258
-9.963746
-9.963172
-9.962437
-9.961514
-9.960482
-9.959368
-9.958201
-9.957009
-9.955848
-9.954739
-9.953761
-9.953151
-9.952978
-9.95317
-9.953585
-9.95413
-9.954781
-9.955558
-9.956384
-9.957094
-9.957842
-9.958689
-9.959582
-9.960478
-9.961332
-9.962145
-9.962922
-9.963643
-9.964274
-9.964812
-9.965299
-9.965747
-9.966162
-9.966541
-9.966855
-9.967022
-9.967028
-9.966891
-9.964053
-9.963608
-9.963106
-9.962514
-9.961812
-9.960914
-9.959903
-9.958823
-9.957715
-9.956607
-9.955543
-9.954538
-9.953621
-9.952979
-9.952827
-9.953128
-9.953624
-9.954237
-9.954968
-9.955824
-9.956658
-9.957361
-9.958159
-9.959062
-9.960017
-9.96098
-9.961921
-9.962838
-9.963716
-9.964531
-9.96524
-9.965863
-9.966445
-9.966996
-9.967506
-9.967941
-9.968247
-9.968345
-9.968273
-9.968101
-9.963698
-9.962869
-9.962364
-9.961737
-9.961025
-9.960177
-9.959245
-9.958272
-9.957296
-9.956333
-9.955409
-9.954545
-9.953747
-9.953164
-9.953035
-9.953404
-9.953953
-9.954614
-9.955396
-9.95627
-9.95703
-9.957752
-9.958584
-9.959496
-9.96047
-9.961465
-9.962459
-9.963456
-9.964407
-9.96527
-9.966026
-9.96674
-9.967434
-9.968088
-9.968661
-9.969105
-9.969378
-9.969406
-9.969273
-9.969088
-9.963338
-9.962096
-9.961572
-9.960977
-9.960301
-9.95954
-9.958737
-9.957916
-9.957106
-9.956313
-9.95555
-9.954837
-9.954187
-9.953743
-9.953711
-9.954055
-9.954596
-9.955256
-9.956035
-9.956851