/*--------------------------------*- C++ -*----------------------------------*\
| =========                 |                                                 |
| \\      /  F ield         | OpenFOAM: The Open Source CFD Toolbox           |
|  \\    /   O peration     | Version:  2212                                  |
|   \\  /    A nd           | Website:  www.openfoam.com                      |
|    \\/     M anipulation  |                                                 |
\*---------------------------------------------------------------------------*/
FoamFile
{
    version     2.0;
    format      ascii;
    arch        "LSB;label=32;scalar=64";
    class       volScalarField;
    location    "2000";
    object      p_rgh;
}
// * * * * * * * * * * * * * * * * * * * * * * * * * * * * * * * * * * * * * //

dimensions      [1 -1 -2 0 0 0 0];

internalField   nonuniform List<scalar> 
96000
(
4.985754
4.985798
4.985025
4.984605
4.984467
4.984339
4.984138
4.983973
4.983766
4.983506
4.983239
4.982897
4.982574
4.982089
4.981207
4.980064
4.979103
4.978385
4.97797
4.978028
4.978496
4.979335
4.980503
4.981811
4.983137
4.984111
4.985157
4.986531
4.988068
4.989455
4.990667
4.991427
4.992143
4.992911
4.993702
4.994726
4.996048
4.996916
4.996491
4.992732
4.986306
4.988263
4.987124
4.986182
4.985715
4.985199
4.984827
4.984628
4.984333
4.983979
4.983575
4.983139
4.982738
4.982249
4.981503
4.980528
4.979556
4.978633
4.978065
4.978121
4.978602
4.979489
4.980698
4.982
4.983365
4.984281
4.98532
4.986817
4.988427
4.989839
4.991038
4.991935
4.992758
4.993602
4.994356
4.995189
4.996043
4.996607
4.996274
4.995016
4.984153
4.985541
4.985347
4.985095
4.984891
4.984638
4.984387
4.984108
4.983697
4.983201
4.98264
4.982094
4.981651
4.981304
4.980811
4.979953
4.979096
4.978445
4.978136
4.978257
4.978721
4.979578
4.980736
4.982012
4.983465
4.984581
4.985689
4.987016
4.988638
4.990095
4.991359
4.992401
4.993321
4.994154
4.994854
4.995498
4.996147
4.99673
4.997058
4.997384
4.982603
4.983374
4.98358
4.983646
4.983737
4.98377
4.983641
4.983326
4.982882
4.982364
4.98182
4.981322
4.980926
4.980636
4.980284
4.979666
4.979037
4.97856
4.978321
4.978422
4.978928
4.979827
4.980958
4.982221
4.983626
4.985073
4.986126
4.987272
4.988744
4.990221
4.991557
4.992695
4.99366
4.994479
4.995192
4.995821
4.996347
4.996637
4.996414
4.995701
4.981964
4.982457
4.982412
4.98238
4.98251
4.982696
4.982661
4.982366
4.981944
4.981514
4.981093
4.98071
4.980396
4.980143
4.979851
4.979376
4.978871
4.978526
4.978441
4.978667
4.979295
4.980256
4.981385
4.98259
4.983905
4.985296
4.986543
4.987629
4.98887
4.990309
4.991644
4.992774
4.993708
4.994475
4.995162
4.995797
4.996329
4.996586
4.996169
4.994875
4.981281
4.981691
4.981486
4.981443
4.981632
4.981781
4.981695
4.981426
4.981038
4.980663
4.980359
4.980106
4.979905
4.979731
4.979526
4.979196
4.978829
4.978581
4.978596
4.979049
4.979856
4.980839
4.981942
4.983089
4.984286
4.985569
4.986883
4.98803
4.989224
4.990505
4.991778
4.992834
4.993692
4.994365
4.994954
4.99559
4.996149
4.996474
4.996307
4.995024
4.980641
4.981061
4.981043
4.980956
4.981106
4.981197
4.981032
4.980598
4.980195
4.979869
4.979643
4.979528
4.979467
4.979417
4.979331
4.979145
4.978907
4.978697
4.978809
4.979667
4.980672
4.981594
4.982622
4.983694
4.984781
4.985924
4.987096
4.988303
4.98939
4.990461
4.991651
4.992739
4.993617
4.994243
4.994657
4.995273
4.995894
4.996374
4.996474
4.995049
4.980639
4.981182
4.98091
4.980446
4.980222
4.980251
4.980302
4.980073
4.979564
4.979262
4.979103
4.979091
4.979176
4.979275
4.979339
4.979294
4.979145
4.979002
4.979483
4.980681
4.981675
4.982477
4.983406
4.98439
4.985373
4.986384
4.987434
4.988507
4.989575
4.990543
4.991542
4.992578
4.993413
4.993985
4.994215
4.994618
4.995232
4.995742
4.995885
4.994387
4.981267
4.981625
4.980876
4.980225
4.979773
4.979482
4.979433
4.979462
4.979228
4.978907
4.978816
4.978889
4.979105
4.979362
4.9796
4.979763
4.979805
4.979975
4.980811
4.981878
4.982705
4.983405
4.984251
4.985149
4.986017
4.986901
4.987822
4.988764
4.989701
4.990601
4.99147
4.992328
4.993038
4.993435
4.99345
4.993436
4.993864
4.99427
4.994407
4.993627
4.981791
4.982011
4.981043
4.980276
4.979653
4.979192
4.978893
4.978864
4.978856
4.978839
4.978791
4.978957
4.979284
4.979694
4.980097
4.980493
4.980905
4.981467
4.982184
4.982928
4.983628
4.984275
4.985067
4.985901
4.986652
4.987394
4.988169
4.988961
4.989745
4.990531
4.991292
4.991989
4.992535
4.992763
4.992387
4.991465
4.991679
4.992446
4.992915
4.99277
4.982026
4.982228
4.981282
4.980489
4.979785
4.979211
4.978801
4.978587
4.978631
4.978773
4.979024
4.979262
4.979702
4.980244
4.980789
4.981326
4.981898
4.98252
4.983142
4.983754
4.984378
4.985018
4.985793
4.986583
4.987216
4.987805
4.988419
4.98905
4.989674
4.990335
4.991008
4.991638
4.992149
4.992451
4.992424
4.991967
4.991712
4.991798
4.991782
4.991576
4.981734
4.98192
4.98128
4.980621
4.979941
4.979372
4.978936
4.978685
4.978622
4.978848
4.979308
4.979752
4.98031
4.980971
4.981624
4.982247
4.982864
4.98345
4.98397
4.984473
4.985026
4.985666
4.986415
4.987144
4.987654
4.988086
4.98853
4.988976
4.989441
4.989995
4.990561
4.991114
4.9916
4.991955
4.992098
4.991963
4.991531
4.990942
4.990244
4.989791
4.980964
4.981335
4.981052
4.98056
4.979952
4.97947
4.979128
4.978934
4.978901
4.979148
4.97966
4.980363
4.981047
4.981835
4.982559
4.983222
4.983839
4.984386
4.984828
4.985246
4.985733
4.986312
4.986956
4.987583
4.987962
4.988231
4.988468
4.988708
4.989037
4.989494
4.989929
4.990358
4.990731
4.990975
4.991032
4.990861
4.990421
4.989709
4.988816
4.988134
4.98025
4.980754
4.980721
4.980341
4.979832
4.979472
4.979279
4.979229
4.97933
4.979664
4.980223
4.980979
4.981813
4.982742
4.983534
4.984214
4.984807
4.985308
4.985702
4.986055
4.986473
4.986944
4.987439
4.987932
4.988167
4.988248
4.988238
4.988291
4.988506
4.988848
4.989137
4.989413
4.989624
4.989713
4.98964
4.989384
4.988927
4.988283
4.987462
4.986843
4.979768
4.980262
4.980377
4.980087
4.979696
4.979475
4.979448
4.979571
4.979837
4.980285
4.980869
4.981598
4.982531
4.98356
4.984413
4.98513
4.985712
4.986167
4.986512
4.986819
4.987173
4.98753
4.987861
4.988199
4.988286
4.988126
4.987909
4.987828
4.987922
4.988108
4.988234
4.988334
4.988367
4.988298
4.988098
4.987763
4.987289
4.986717
4.986034
4.985617
4.97945
4.97991
4.980084
4.979886
4.979604
4.979531
4.979668
4.97996
4.980385
4.980928
4.981484
4.982234
4.983248
4.984306
4.985147
4.985863
4.98645
4.986888
4.98721
4.987508
4.987808
4.988058
4.988242
4.988413
4.988345
4.987986
4.987619
4.987396
4.987319
4.987286
4.987234
4.987153
4.987009
4.986789
4.98647
4.986057
4.985567
4.985075
4.984548
4.984314
4.979256
4.979647
4.979911
4.979812
4.979624
4.979681
4.979958
4.980405
4.980942
4.981499
4.981956
4.982718
4.983857
4.984984
4.985795
4.986474
4.987055
4.987504
4.987854
4.988147
4.988372
4.988507
4.988584
4.988577
4.988329
4.987841
4.987335
4.986924
4.986624
4.98638
4.986149
4.985894
4.98558
4.985206
4.984771
4.984295
4.983831
4.983424
4.983029
4.982904
4.979152
4.979415
4.979892
4.979886
4.979756
4.97991
4.980318
4.980868
4.981437
4.981927
4.982417
4.983241
4.984381
4.985495
4.986358
4.987053
4.987623
4.988089
4.98844
4.988659
4.988766
4.988789
4.988761
4.988599
4.988162
4.987586
4.986946
4.986358
4.98586
4.985421
4.985011
4.984588
4.984109
4.983595
4.983078
4.9826
4.982167
4.981787
4.981475
4.981394
4.979203
4.979349
4.980073
4.980123
4.979967
4.980202
4.980691
4.981253
4.981824
4.982452
4.98322
4.984012
4.984865
4.985844
4.986761
4.987521
4.988132
4.988554
4.988799
4.988883
4.988867
4.988793
4.988667
4.988398
4.987866
4.987253
4.986519
4.985768
4.985072
4.984438
4.983855
4.983283
4.982685
4.982088
4.981529
4.981027
4.980569
4.980205
4.979974
4.979901
4.979305
4.979333
4.980155
4.980171
4.980121
4.980488
4.981051
4.981705
4.98248
4.983367
4.984216
4.98484
4.985369
4.98611
4.986927
4.987724
4.988365
4.988716
4.988854
4.988836
4.98872
4.988585
4.988412
4.988081
4.987518
4.986869
4.986061
4.985173
4.9843
4.983487
4.982742
4.982029
4.981327
4.980661
4.98005
4.979508
4.979065
4.978766
4.978628
4.978545
4.979782
4.980122
4.980638
4.98056
4.980708
4.981185
4.981791
4.982549
4.983429
4.984321
4.985095
4.985595
4.985878
4.986245
4.986803
4.987589
4.988231
4.988549
4.988645
4.988569
4.988403
4.988251
4.988042
4.987652
4.987094
4.986414
4.98557
4.984605
4.983591
4.982625
4.981737
4.980871
4.980051
4.979309
4.978666
4.978144
4.977762
4.977539
4.977472
4.977373
4.980427
4.980876
4.981555
4.981523
4.98191
4.982412
4.982953
4.983619
4.98438
4.985124
4.985748
4.986085
4.986125
4.986049
4.986349
4.987157
4.987812
4.98816
4.988237
4.988122
4.987943
4.987787
4.987507
4.987072
4.986536
4.985864
4.985045
4.984086
4.982991
4.981909
4.98087
4.97985
4.97893
4.978152
4.977525
4.977045
4.976713
4.97654
4.976516
4.976389
4.980915
4.981451
4.982535
4.982532
4.982952
4.983412
4.983846
4.984373
4.984979
4.985577
4.986067
4.986267
4.986013
4.985665
4.985799
4.986596
4.987292
4.987614
4.98765
4.987502
4.987311
4.987128
4.986806
4.986358
4.985834
4.985222
4.984468
4.983591
4.98254
4.981398
4.980185
4.979049
4.978086
4.977305
4.976696
4.976238
4.975931
4.975785
4.975785
4.975616
4.980905
4.981907
4.983066
4.983232
4.98365
4.984058
4.984413
4.984822
4.985271
4.985699
4.986018
4.986021
4.985578
4.985199
4.985445
4.986102
4.986679
4.98691
4.986888
4.986712
4.986519
4.986334
4.986017
4.985576
4.985059
4.984498
4.983847
4.983142
4.982274
4.981007
4.979661
4.978502
4.977522
4.976712
4.976096
4.975663
4.975388
4.975259
4.975294
4.97509
4.981058
4.982799
4.983665
4.983878
4.984252
4.984602
4.984883
4.985167
4.985447
4.985674
4.98575
4.98553
4.985043
4.984758
4.985047
4.985616
4.985971
4.986062
4.985981
4.98581
4.985642
4.98546
4.985162
4.984751
4.984266
4.983751
4.983229
4.982669
4.981774
4.980434
4.979162
4.97805
4.977099
4.976334
4.975758
4.975348
4.975102
4.975009
4.975076
4.974816
4.982074
4.983865
4.984453
4.984651
4.984919
4.985146
4.985282
4.985392
4.98546
4.985451
4.985283
4.984849
4.984336
4.98422
4.984589
4.984977
4.985109
4.985092
4.984986
4.984845
4.984708
4.984531
4.984262
4.983904
4.983482
4.983036
4.982614
4.982005
4.980957
4.979828
4.97877
4.977792
4.976936
4.976235
4.975696
4.975328
4.975146
4.975105
4.975207
4.974862
4.983309
4.984957
4.985312
4.985468
4.985576
4.985618
4.985547
4.985425
4.985245
4.984987
4.984624
4.984085
4.983569
4.983549
4.983886
4.984087
4.984102
4.984037
4.983935
4.983829
4.983721
4.983569
4.983352
4.98307
4.982739
4.98239
4.982027
4.98137
4.980478
4.979573
4.97867
4.97781
4.97704
4.976401
4.975927
4.975641
4.97554
4.975569
4.975761
4.975412
4.984542
4.985912
4.986118
4.986214
4.986133
4.985952
4.985637
4.985264
4.984895
4.984511
4.984065
4.983519
4.983063
4.982948
4.983024
4.983021
4.982957
4.982878
4.982805
4.982748
4.982691
4.982601
4.982467
4.982287
4.982073
4.981844
4.98155
4.980999
4.980305
4.979559
4.978791
4.978047
4.977377
4.976832
4.976453
4.976257
4.976235
4.976299
4.976524
4.976089
4.985727
4.986689
4.986801
4.986773
4.986502
4.986103
4.985599
4.985121
4.984782
4.984497
4.984141
4.983704
4.983215
4.982699
4.982264
4.981941
4.981715
4.981601
4.981571
4.981591
4.981625
4.981639
4.981619
4.981565
4.981486
4.981384
4.981191
4.980796
4.980281
4.979698
4.97908
4.978473
4.97793
4.977502
4.97723
4.977137
4.977204
4.977297
4.977521
4.976964
4.986747
4.98729
4.98733
4.987163
4.98672
4.98613
4.985683
4.985462
4.98523
4.984794
4.984193
4.983523
4.982828
4.982123
4.981387
4.980784
4.98042
4.980247
4.98026
4.980381
4.980535
4.98068
4.980793
4.980874
4.980927
4.980949
4.980892
4.980683
4.980356
4.979948
4.979496
4.979044
4.978644
4.978347
4.978194
4.978216
4.978397
4.978551
4.978823
4.97821
4.987568
4.987898
4.987872
4.987581
4.987098
4.986611
4.98629
4.985941
4.985328
4.984513
4.98361
4.982709
4.981855
4.981073
4.980333
4.979577
4.979064
4.978891
4.978951
4.979177
4.979453
4.979726
4.979972
4.980183
4.980367
4.980517
4.980608
4.980592
4.980465
4.980244
4.979971
4.979689
4.979446
4.97929
4.979266
4.979411
4.979714
4.979921
4.980234
4.979638
4.988166
4.988348
4.988273
4.987996
4.987629
4.987184
4.986611
4.985885
4.984995
4.983973
4.982886
4.981822
4.980835
4.979948
4.979189
4.978504
4.977935
4.977659
4.977791
4.978061
4.978425
4.978798
4.97916
4.979493
4.979804
4.980088
4.980326
4.98049
4.980557
4.980531
4.980448
4.980346
4.980267
4.980259
4.980367
4.980638
4.981064
4.981296
4.981583
4.980925
4.988512
4.988613
4.988655
4.988414
4.987973
4.987344
4.98657
4.985653
4.984595
4.983429
4.982213
4.981038
4.979941
4.978956
4.978139
4.977472
4.977045
4.976761
4.976875
4.977113
4.977487
4.97792
4.978373
4.978817
4.979253
4.979673
4.980059
4.980389
4.980636
4.980799
4.980903
4.980977
4.981059
4.981192
4.981422
4.981796
4.982315
4.982527
4.982668
4.981799
4.989032
4.989131
4.989096
4.988747
4.988206
4.987442
4.986522
4.985468
4.984277
4.983004
4.981717
4.980488
4.979318
4.978244
4.977365
4.97665
4.976167
4.976045
4.976101
4.976399
4.97667
4.977112
4.977638
4.978182
4.978736
4.979288
4.979822
4.980314
4.980733
4.981073
4.981347
4.981579
4.981803
4.982062
4.982391
4.98284
4.983407
4.983607
4.983597
4.982559
4.98963
4.989704
4.989579
4.989107
4.988461
4.987582
4.986551
4.985394
4.98412
4.982796
4.981493
4.980261
4.979058
4.977904
4.976953
4.97616
4.975606
4.975316
4.975481
4.97595
4.975992
4.976407
4.976992
4.97762
4.978285
4.978964
4.979638
4.980279
4.980847
4.98134
4.981764
4.982133
4.982477
4.982841
4.983241
4.983726
4.98431
4.984567
4.984507
4.983556
4.990243
4.990316
4.990096
4.989518
4.98878
4.987802
4.986677
4.985459
4.984153
4.982845
4.981594
4.980399
4.979191
4.977955
4.976921
4.976031
4.975337
4.974881
4.974981
4.975344
4.975522
4.975849
4.976496
4.977185
4.977941
4.978722
4.979507
4.980261
4.980949
4.981573
4.982121
4.982603
4.983046
4.983488
4.98392
4.984384
4.984925
4.985263
4.985225
4.984391
4.990853
4.991011
4.990703
4.989997
4.989164
4.988092
4.9869
4.985658
4.98437
4.983161
4.982047
4.980922
4.979701
4.97836
4.977224
4.976222
4.975407
4.974732
4.974592
4.97503
4.975345
4.975488
4.976181
4.976902
4.977711
4.978552
4.979403
4.980234
4.981016
4.981738
4.982381
4.98295
4.983464
4.983945
4.984359
4.984759
4.985229
4.985644
4.985816
4.985171
4.99133
4.991664
4.991297
4.990451
4.989538
4.98841
4.987176
4.98594
4.984707
4.983686
4.982814
4.981772
4.980483
4.97898
4.977713
4.976601
4.975686
4.974866
4.974438
4.974864
4.975139
4.975326
4.976031
4.976765
4.977585
4.978442
4.979315
4.980183
4.981017
4.981802
4.982517
4.983154
4.983712
4.984203
4.984572
4.984921
4.985371
4.98585
4.986232
4.985943
4.991523
4.991888
4.991618
4.990752
4.989822
4.988697
4.987458
4.986262
4.985094
4.98429
4.983731
4.982857
4.981393
4.979662
4.978225
4.976951
4.975919
4.975125
4.974522
4.974826
4.97505
4.975448
4.976019
4.976727
4.977511
4.97835
4.979222
4.980108
4.980976
4.981819
4.982602
4.983265
4.98379
4.984261
4.984593
4.98489
4.985389
4.986082
4.986591
4.985858
4.99102
4.991124
4.991187
4.990466
4.989616
4.988592
4.987359
4.986138
4.984922
4.984113
4.983889
4.983616
4.981851
4.979858
4.978281
4.97689
4.975731
4.974943
4.97448
4.974724
4.974991
4.975523
4.975954
4.97658
4.977288
4.978071
4.978896
4.979738
4.980564
4.981375
4.982171
4.982797
4.983224
4.983557
4.983881
4.984317
4.98502
4.985801
4.986422
4.986004
4.985164
4.98636
4.984905
4.983762
4.984312
4.984817
4.984523
4.984371
4.984329
4.984315
4.984482
4.984114
4.983477
4.982755
4.981884
4.980461
4.979148
4.97849
4.9781
4.978115
4.978558
4.979399
4.980552
4.981709
4.982602
4.983447
4.984518
4.985844
4.987306
4.98861
4.989777
4.990375
4.990884
4.991207
4.991644
4.992832
4.995134
4.996692
4.996749
4.987338
4.987128
4.988878
4.987217
4.986115
4.986417
4.986102
4.985731
4.985577
4.985063
4.984468
4.983843
4.98309
4.982372
4.981779
4.981362
4.980843
4.980273
4.979531
4.97856
4.978354
4.978757
4.979684
4.980834
4.981858
4.982631
4.983532
4.9848
4.98627
4.987848
4.989378
4.990658
4.991569
4.992121
4.9926
4.992976
4.993899
4.994969
4.996074
4.996344
4.996277
4.984324
4.986277
4.985614
4.985382
4.985482
4.985396
4.985104
4.98468
4.984004
4.983294
4.982538
4.981788
4.981162
4.980719
4.980392
4.979844
4.979278
4.978769
4.978366
4.978406
4.978886
4.979713
4.980701
4.981695
4.982678
4.98366
4.985072
4.986619
4.988293
4.989847
4.991165
4.992194
4.992979
4.993636
4.994137
4.994575
4.995122
4.995784
4.996362
4.997611
4.982053
4.983503
4.983838
4.983868
4.984203
4.984453
4.984312
4.983787
4.983072
4.982353
4.981677
4.981065
4.980523
4.980059
4.979691
4.979343
4.979003
4.978704
4.978521
4.978587
4.979085
4.979858
4.980791
4.981841
4.982888
4.984145
4.985415
4.986791
4.988401
4.989972
4.99139
4.992537
4.993396
4.994072
4.994675
4.995162
4.995608
4.995886
4.995539
4.992604
4.981451
4.98209
4.982135
4.982197
4.982672
4.983183
4.983295
4.982894
4.982173
4.981538
4.981023
4.98056
4.980129
4.979738
4.979421
4.979169
4.978931
4.97874
4.978697
4.978897
4.979465
4.980231
4.981161
4.982196
4.98328
4.984442
4.985737
4.986945
4.988394
4.990011
4.991459
4.99261
4.993442
4.994015
4.994661
4.995249
4.995763
4.996071
4.995668
4.993065
4.980701
4.980965
4.980717
4.980817
4.981241
4.981725
4.982018
4.981869
4.981358
4.980788
4.980373
4.980053
4.979772
4.979519
4.979327
4.979207
4.979115
4.979053
4.979117
4.979416
4.98001
4.980753
4.981669
4.982682
4.983757
4.984857
4.986042
4.987193
4.988511
4.990061
4.991511
4.992649
4.993429
4.993923
4.994422
4.995135
4.995643
4.995942
4.996017
4.994084
4.980211
4.980946
4.981106
4.980784
4.980666
4.98059
4.980698
4.980684
4.980399
4.980099
4.979754
4.979562
4.979444
4.979358
4.97932
4.979359
4.97944
4.979508
4.979611
4.980085
4.980684
4.981398
4.982279
4.983253
4.984287
4.985348
4.986426
4.98752
4.988645
4.989934
4.991354
4.992567
4.993406
4.993856
4.993967
4.994679
4.995219
4.995874
4.996423
4.993803
4.980991
4.982227
4.98209
4.981135
4.980208
4.979762
4.979611
4.979489
4.979407
4.97937
4.979283
4.9792
4.979249
4.979345
4.97948
4.979685
4.979931
4.980085
4.980347
4.980892
4.981453
4.982141
4.982971
4.983887
4.98487
4.985906
4.986945
4.987998
4.98907
4.990159
4.991293
4.992396
4.993254
4.993703
4.993501
4.993865
4.994437
4.995334
4.995823
4.992313
4.98257
4.982231
4.981347
4.980754
4.980208
4.97943
4.978928
4.978636
4.978507
4.978693
4.978873
4.979028
4.979248
4.979542
4.979863
4.980243
4.980665
4.98102
4.981336
4.981761
4.982292
4.98295
4.98372
4.984563
4.985469
4.986451
4.987464
4.988471
4.989471
4.990451
4.991401
4.992267
4.992949
4.99335
4.993209
4.992942
4.993042
4.99346
4.993482
4.99193
4.982299
4.981637
4.980825
4.980311
4.979891
4.979469
4.978799
4.978238
4.977997
4.978215
4.978606
4.978988
4.979443
4.979935
4.980421
4.980912
4.981425
4.981887
4.982233
4.982634
4.983151
4.98377
4.984479
4.985239
4.986046
4.986923
4.987863
4.988788
4.989679
4.990552
4.991399
4.992169
4.99279
4.993192
4.993198
4.992765
4.99228
4.992007
4.991691
4.992069
4.982018
4.981302
4.980623
4.980186
4.979757
4.979348
4.97891
4.978315
4.977954
4.978083
4.978578
4.979122
4.979788
4.980488
4.981122
4.981689
4.982227
4.982717
4.983127
4.983527
4.984012
4.984582
4.985209
4.985867
4.986552
4.987295
4.988093
4.988907
4.989684
4.990454
4.991232
4.992
4.992678
4.993179
4.993405
4.993214
4.992867
4.992335
4.99146
4.991115
4.981963
4.981175
4.980577
4.98017
4.979756
4.979368
4.979001
4.978617
4.978277
4.978348
4.978772
4.979451
4.980283
4.981165
4.981938
4.982582
4.983146
4.98364
4.984053
4.984432
4.98487
4.985362
4.985873
4.986399
4.986942
4.987532
4.988164
4.98879
4.989417
4.99007
4.990721
4.991377
4.991954
4.992379
4.992573
4.992431
4.991927
4.991251
4.990158
4.989181
4.981084
4.981031
4.98051
4.980143
4.979768
4.979465
4.979212
4.978999
4.978829
4.978892
4.979263
4.97995
4.980923
4.981959
4.982821
4.983511
4.984089
4.984585
4.984986
4.985333
4.985701
4.986091
4.986468
4.986832
4.987211
4.987641
4.988065
4.988438
4.988896
4.98943
4.989951
4.990463
4.990884
4.991153
4.991218
4.991041
4.990533
4.989747
4.988644
4.987613
4.979984
4.980856
4.980361
4.980051
4.979753
4.979568
4.979469
4.979424
4.979431
4.979566
4.97998
4.980663
4.981756
4.982908
4.9838
4.984467
4.985006
4.985482
4.985876
4.986181
4.986467
4.986741
4.986978
4.987178
4.987394
4.987651
4.987795
4.987948
4.988246
4.988651
4.989027
4.989373
4.989628
4.989736
4.989667
4.989414
4.988943
4.988207
4.987228
4.986454
4.979475
4.980664
4.980187
4.979937
4.979737
4.979681
4.979737
4.979849
4.980021
4.980278
4.980825
4.981659
4.982872
4.984071
4.984916
4.985488
4.985923
4.986315
4.986673
4.986945
4.987145
4.987301
4.9874
4.987446
4.987507
4.987547
4.987458
4.987444
4.987594
4.987826
4.98802
4.988181
4.988262
4.988219
4.988024
4.987691
4.987214
4.986578
4.985802
4.985301
4.979264
4.980566
4.980061
4.979884
4.979774
4.979838
4.980022
4.980283
4.980606
4.980996
4.981683
4.982752
4.984106
4.985313
4.986097
4.98655
4.986847
4.987112
4.987387
4.987613
4.987731
4.987775
4.987744
4.987643
4.987544
4.9874
4.987166
4.987008
4.986963
4.986947
4.986944
4.986917
4.986825
4.986637
4.986329
4.985918
4.985428
4.984898
4.984298
4.983967
4.979147
4.98042
4.980058
4.979975
4.979935
4.98008
4.980344
4.980752
4.981211
4.981722
4.982506
4.983748
4.98518
4.986384
4.987157
4.987564
4.987769
4.987914
4.988087
4.988199
4.988208
4.988148
4.988012
4.98779
4.987512
4.987195
4.986837
4.98649
4.98621
4.985992
4.985803
4.985596
4.985338
4.985012
4.984607
4.984149
4.983676
4.983211
4.982726
4.982475
4.978991
4.980029
4.980186
4.980212
4.980205
4.98037
4.980737
4.981275
4.981846
4.982493
4.983452
4.984753
4.986109
4.987236
4.988011
4.988436
4.988617
4.988693
4.988708
4.988647
4.988531
4.98839
4.9882
4.987875
4.987392
4.98685
4.98632
4.98583
4.985389
4.984996
4.984631
4.984255
4.983847
4.983405
4.982937
4.982473
4.982
4.981552
4.981161
4.980954
4.978915
4.979443
4.980425
4.980578
4.980506
4.980689
4.981218
4.98187
4.98259
4.983462
4.984575
4.985791
4.986966
4.987956
4.988672
4.989105
4.989259
4.989234
4.9891
4.988899
4.988694
4.988518
4.988282
4.98784
4.987179
4.986463
4.985771
4.985133
4.984539
4.983987
4.983466
4.982948
4.982423
4.981898
4.981386
4.980879
4.980394
4.979996
4.979738
4.979574
4.979032
4.979668
4.980715
4.980941
4.98083
4.981217
4.981875
4.982647
4.983543
4.984565
4.985638
4.9867
4.98773
4.988598
4.989209
4.989578
4.989631
4.989477
4.989214
4.988907
4.988621
4.98846
4.988218
4.987655
4.986862
4.986023
4.985199
4.984423
4.983689
4.983001
4.982346
4.981693
4.981051
4.980438
4.979868
4.979349
4.978909
4.978629
4.978557
4.978424
4.97924
4.980473
4.981191
4.981473
4.981556
4.982055
4.982762
4.983608
4.984554
4.985545
4.986522
4.987441
4.988324
4.989108
4.989627
4.989828
4.989707
4.989413
4.98903
4.988611
4.988282
4.988172
4.987972
4.987279
4.986429
4.985528
4.984614
4.983727
4.982878
4.982084
4.981316
4.980514
4.979754
4.979064
4.978464
4.977975
4.977628
4.977497
4.977595
4.977437
4.979482
4.980971
4.981881
4.982301
4.982671
4.983234
4.983904
4.984686
4.985537
4.986405
4.987246
4.988011
4.988734
4.989432
4.989832
4.989805
4.989498
4.989056
4.988569
4.9881
4.987828
4.987827
4.987489
4.986717
4.985876
4.984975
4.984023
4.983058
4.982126
4.981269
4.980393
4.979473
4.978625
4.977894
4.977305
4.976872
4.976608
4.976587
4.976799
4.976543
4.979332
4.981367
4.982656
4.983187
4.983722
4.984293
4.984885
4.985543
4.986242
4.986964
4.987686
4.988328
4.988873
4.989387
4.989624
4.98944
4.988998
4.988463
4.987923
4.987467
4.987284
4.987295
4.986806
4.986061
4.98525
4.984377
4.983419
4.982418
4.981451
4.980574
4.979615
4.978641
4.977761
4.977034
4.976478
4.976083
4.975849
4.97587
4.97618
4.975781
4.977711
4.981903
4.983373
4.983914
4.984482
4.985012
4.985504
4.986014
4.986538
4.987081
4.987623
4.988096
4.988485
4.988821
4.988947
4.988723
4.988272
4.987721
4.987181
4.98677
4.986632
4.98654
4.986053
4.985373
4.984602
4.98376
4.982833
4.981853
4.980895
4.979964
4.979003
4.97807
4.977211
4.976504
4.975971
4.975584
4.975306
4.975267
4.975745
4.975239
4.978403
4.982819
4.984063
4.984493
4.984999
4.985439
4.9858
4.986138
4.986466
4.986796
4.987107
4.987372
4.987631
4.987867
4.987944
4.987753
4.987355
4.986861
4.986375
4.986026
4.985876
4.985679
4.985244
4.984656
4.983958
4.983175
4.982325
4.981421
4.980481
4.979516
4.978598
4.977728
4.976941
4.976282
4.975757
4.975308
4.974932
4.97486
4.975454
4.974892
4.979633
4.983748
4.984756
4.985048
4.985413
4.985722
4.985926
4.986079
4.986194
4.986278
4.986342
4.986385
4.986541
4.986711
4.986726
4.986547
4.98623
4.985839
4.985453
4.985174
4.985003
4.984765
4.984401
4.983926
4.983343
4.982668
4.981944
4.981143
4.980224
4.97933
4.978455
4.977619
4.976862
4.976219
4.975669
4.975199
4.97487
4.974841
4.975576
4.974824
4.981032
4.984774
4.985509
4.985672
4.985829
4.985955
4.985959
4.985885
4.98574
4.985544
4.985432
4.985366
4.985367
4.985397
4.985327
4.985153
4.984914
4.984638
4.984374
4.984176
4.984024
4.983822
4.983556
4.983213
4.982776
4.982253
4.981665
4.980946
4.980172
4.979362
4.978526
4.977716
4.976976
4.976332
4.975795
4.975392
4.975132
4.975225
4.97631
4.975624
4.982656
4.985732
4.98623
4.986293
4.986209
4.986094
4.985853
4.985533
4.985206
4.98489
4.98463
4.984394
4.98421
4.984053
4.983851
4.983647
4.983454
4.983275
4.983131
4.983043
4.982977
4.982879
4.982736
4.982533
4.982253
4.981894
4.981441
4.980859
4.980197
4.979467
4.978705
4.977961
4.977277
4.976691
4.976229
4.975885
4.975671
4.975844
4.977248
4.976255
4.98452
4.986502
4.986854
4.986784
4.986556
4.986268
4.985907
4.985488
4.985084
4.984713
4.984323
4.983857
4.983337
4.982828
4.982393
4.982069
4.981862
4.981757
4.981741
4.981799
4.981884
4.981934
4.981927
4.981861
4.981727
4.981524
4.981222
4.980791
4.980264
4.979663
4.979022
4.978388
4.977807
4.977315
4.97693
4.976646
4.976479
4.976698
4.978261
4.976786
4.986148
4.987078
4.987471
4.987391
4.987035
4.986605
4.986258
4.985887
4.985399
4.984791
4.984078
4.983283
4.982424
4.981571
4.98089
4.980428
4.980171
4.98012
4.980253
4.980497
4.980766
4.980976
4.981106
4.981171
4.981176
4.981126
4.980999
4.980752
4.980395
4.979957
4.97947
4.978976
4.978519
4.978133
4.977831
4.977617
4.977517
4.977827
4.979693
4.977955
4.987297
4.987936
4.988187
4.987996
4.98762
4.987191
4.986743
4.986159
4.985373
4.984446
4.983439
4.982418
4.981404
4.980391
4.979503
4.978862
4.978517
4.978475
4.978752
4.97921
4.979669
4.980023
4.980279
4.980466
4.980611
4.980713
4.980757
4.980705
4.980544
4.980295
4.979984
4.979652
4.979337
4.979072
4.978871
4.978744
4.978717
4.979078
4.981189
4.979567
4.987969
4.988508
4.988629
4.98841
4.988048
4.987534
4.986858
4.986002
4.984984
4.983852
4.982669
4.981521
4.98045
4.979406
4.978422
4.977627
4.977145
4.977008
4.977344
4.978001
4.978642
4.979106
4.979464
4.979761
4.98004
4.980293
4.980499
4.980627
4.980654
4.980601
4.980486
4.980335
4.980177
4.980046
4.979961
4.979942
4.980011
4.980398
4.982631
4.980956
4.988239
4.988754
4.98897
4.988751
4.988316
4.987637
4.986775
4.985741
4.984551
4.983265
4.981957
4.980732
4.979636
4.978596
4.977603
4.976723
4.976109
4.975853
4.976106
4.976916
4.977686
4.97824
4.978676
4.979072
4.979472
4.979869
4.98023
4.980522
4.980719
4.980842
4.980905
4.980926
4.980928
4.980932
4.980958
4.98103
4.98115
4.981448
4.983332
4.981262
4.988773
4.989318
4.989446
4.989094
4.988537
4.987702
4.986683
4.985506
4.984184
4.982784
4.981396
4.980137
4.97907
4.978096
4.97715
4.976221
4.975479
4.975016
4.975061
4.975995
4.976788
4.977415
4.977923
4.978414
4.978927
4.979449
4.979949
4.980391
4.980756
4.981054
4.981271
4.981432
4.98156
4.981678
4.981793
4.981924
4.982063
4.982286
4.983777
4.981427
4.989434
4.989951
4.989972
4.989467
4.988778
4.987803
4.986647
4.985355
4.983949
4.982493
4.981066
4.97978
4.9787
4.977772
4.976974
4.976151
4.97541
4.974703
4.974396
4.975166
4.975908
4.976633
4.977221
4.977796
4.978418
4.979056
4.979684
4.980273
4.980799
4.981255
4.981625
4.981921
4.982157
4.982374
4.982569
4.982771
4.982987
4.983317
4.984555
4.982871
4.990096
4.990657
4.990576
4.989918
4.989099
4.987991
4.986709
4.985348
4.983889
4.982414
4.980993
4.979712
4.978611
4.977598
4.976775
4.975981
4.975249
4.974729
4.974117
4.97421
4.975131
4.975953
4.976668
4.977312
4.978015
4.978744
4.979476
4.980187
4.980847
4.981447
4.981959
4.982384
4.982736
4.983051
4.983328
4.983602
4.983908
4.984255
4.984935
4.983921
4.990716
4.991482
4.991306
4.990473
4.989523
4.988269
4.986887
4.985481
4.983979
4.982531
4.981177
4.979929
4.978812
4.977715
4.976838
4.976023
4.97522
4.974642
4.974053
4.973636
4.974585
4.975452
4.976315
4.977006
4.977753
4.978528
4.979322
4.98012
4.980879
4.981595
4.982226
4.982775
4.983234
4.983621
4.983933
4.984231
4.984536
4.984827
4.985386
4.984826
4.991184
4.992337
4.991936
4.990926
4.989924
4.988633
4.987181
4.985751
4.984208
4.982849
4.981658
4.980457
4.979318
4.978155
4.977239
4.976458
4.975598
4.975024
4.974167
4.9734
4.974171
4.975218
4.976183
4.976896
4.977641
4.978413
4.979222
4.980058
4.980867
4.98166
4.982391
4.983049
4.983604
4.984067
4.984445
4.984787
4.985092
4.985326
4.985932
4.986295
4.991229
4.992536
4.992272
4.991304
4.990366
4.989162
4.987676
4.986283
4.984683
4.983428
4.982519
4.981511
4.98019
4.979006
4.978121
4.97744
4.976451
4.976208
4.974656
4.973669
4.974096
4.975284
4.976215
4.976903
4.977597
4.978328
4.979122
4.979979
4.980824
4.981686
4.982518
4.983205
4.983757
4.984314
4.98487
4.985126
4.985399
4.986354
4.987325
4.985019
4.990843
4.991283
4.99175
4.990985
4.990151
4.989241
4.987746
4.986627
4.985176
4.984076
4.983916
4.984017
4.981367
4.979825
4.978822
4.977636
4.975993
4.975157
4.974269
4.973901
4.97408
4.975203
4.975948
4.976547
4.977181
4.977873
4.978621
4.979411
4.980196
4.981026
4.981918
4.982502
4.982766
4.982824
4.982984
4.983142
4.984199
4.985501
4.986714
4.985297
4.983325
4.985257
4.983417
4.982224
4.983961
4.985423
4.985001
4.984811
4.984904
4.985108
4.985515
4.984264
4.982519
4.98158
4.981714
4.981135
4.978733
4.978187
4.978255
4.978232
4.97854
4.979251
4.980201
4.980928
4.981176
4.982279
4.983883
4.984968
4.98635
4.987717
4.988816
4.98893
4.98852
4.987198
4.986724
4.988474
4.993789
4.996681
4.997218
4.990071
4.98542
4.987636
4.986257
4.985346
4.986822
4.986998
4.986768
4.986717
4.986093
4.985082
4.983974
4.982797
4.981791
4.981072
4.980754
4.980806
4.980478
4.980615
4.979656
4.978846
4.97881
4.979475
4.980221
4.980644
4.981006
4.982378