/*--------------------------------*- C++ -*----------------------------------*\
| =========                 |                                                 |
| \\      /  F ield         | OpenFOAM: The Open Source CFD Toolbox           |
|  \\    /   O peration     | Version:  2212                                  |
|   \\  /    A nd           | Website:  www.openfoam.com                      |
|    \\/     M anipulation  |                                                 |
\*---------------------------------------------------------------------------*/
FoamFile
{
    version     2.0;
    format      ascii;
    arch        "LSB;label=32;scalar=64";
    class       surfaceScalarField;
    location    "2000";
    object      phi;
}
// * * * * * * * * * * * * * * * * * * * * * * * * * * * * * * * * * * * * * //

dimensions      [1 0 -1 0 0 0 0];

oriented        oriented;

internalField   nonuniform List<scalar> 
281600
(
-0.04368211
-0.03146901
-0.01938963
-0.02529711
-0.01271982
-0.004771608
-0.01925662
-0.01187639
0.004188721
-0.02267546
-0.0101551
0.01133163
-0.02515815
-0.007342188
0.008295324
-0.0269405
-0.005202491
0.005893088
-0.02959601
-0.005006306
0.006848903
-0.0303066
-0.004803215
0.005006436
-0.02843966
-0.00427899
0.001986453
-0.02424335
-0.003440047
-0.001147458
-0.01725432
-0.001936124
-0.005365446
-0.008509958
-0.0005693373
-0.008444351
0.002231859
0.000212185
-0.01121643
0.01439509
-0.0002313351
-0.01203958
0.02566718
-0.002499885
-0.008649937
0.03155921
-0.007232619
0.00133486
0.03265869
-0.009603825
0.008412366
0.03047539
-0.009929243
0.01162086
0.02565743
-0.009423711
0.01387409
0.01984391
-0.009474454
0.01499247
0.01423109
-0.009974051
0.01531098
0.01082654
-0.01033698
0.01362446
0.01026755
-0.009840595
0.01038384
0.007380021
-0.008873143
0.01169765
-0.007150392
-0.007390337
0.02176554
-0.02477808
-0.001537548
0.01904941
-0.03129642
0.001776948
0.00454159
-0.03105015
0.003605576
-0.004244878
-0.02915661
0.004346514
-0.006388681
-0.02949098
0.00356131
-0.003301617
-0.03098309
0.002046011
-0.0008583833
-0.03489993
-0.0005322166
0.003994704
-0.03990024
-0.002301252
0.007056331
-0.043876
-0.003011888
0.007119259
-0.04558454
-0.002658809
0.004749725
-0.04264312
-0.001017296
-0.001443068
-0.03248746
0.001744202
-0.01151243
-0.01478129
0.002878168
-0.02024774
0.01169122
0.0002432497
-0.02615756
-0.01450972
0.02767998
-0.02266045
0.007045441
-0.01505117
-0.01717565
0.01134012
-0.03357492
-0.01817158
0.007663098
-0.02227737
-0.02394525
0.005617608
-0.01279527
-0.02813326
0.005607762
-0.01082581
-0.0328866
0.005059172
-0.00707935
-0.03664134
0.004443296
-0.006811053
-0.03655326
0.004966589
-0.01071404
-0.0333573
0.006119275
-0.01430174
-0.02792232
0.007618493
-0.01705943
-0.0208695
0.009264344
-0.01875199
-0.01273975
0.01050358
-0.01961801
-0.003226868
0.01074489
-0.02037077
0.007608766
0.009286567
-0.02074054
0.01804788
0.005481004
-0.01888925
0.0255859
0.0001215827
-0.01537742
0.03102791
-0.003506658
-0.01235195
0.03299621
-0.006453829
-0.006053464
0.02929524
-0.009359022
0.003319865
0.02272252
-0.01166964
0.00855097
0.01618847
-0.01374767
0.0100805
0.01320448
-0.01455902
0.007072606
0.01363245
-0.01375583
0.003382049
0.01023126
-0.01277294
0.007127656
-0.00845104
-0.009834006
0.02094123
-0.02810959
-0.001224918
0.01922487
-0.03341689
0.00652792
0.0002975808
-0.03220773
0.01182929
-0.00979126
-0.03043902
0.01340358
-0.01093363
-0.03158977
0.01238138
-0.007862938
-0.03518617
0.01014306
-0.004718579
-0.03985419
0.006963072
-0.002787808
-0.04346598
0.004407248
-0.002693566
-0.04493726
0.003087174
-0.00393662
-0.04459744
0.002760375
-0.004876002
-0.04113808
0.003771548
-0.007337643
-0.03317882
0.00538421
-0.01063852
-0.01892146
0.005733422
-0.01622117
-0.0002243509
0.003115625
-0.02137843
-0.00233364
-0.0162428
-0.02021393
0.02130638
0.003997418
-0.01972505
0.02415142
-0.01731468
-0.02077511
0.02054687
-0.01460956
-0.02456373
0.01838415
-0.01103378
-0.02875768
0.0164949
-0.008152082
-0.0327556
0.01433361
-0.006357083
-0.03514456
0.0131197
-0.007073135
-0.03470243
0.01319439
-0.009285909
-0.0319638
0.01382338
-0.0109549
-0.02738944
0.01456215
-0.01198678
-0.02134559
0.01506432
-0.01226811
-0.01412005
0.01501835
-0.01213837
-0.005573749
0.01410995
-0.01231192
0.004520504
0.01223802
-0.01349878
0.01462487
0.008485567
-0.01353299
0.02206457
0.003717642
-0.01126219
0.02708883
-0.0004262306
-0.00820691
0.02859472
-0.00431373
-0.003575378
0.02544836
-0.008060725
0.001899859
0.01963313
-0.01131553
0.005382745
0.01419784
-0.014441
0.006031956
0.0126165
-0.01588559
0.002879273
0.01435825
-0.01552939
-7.957086e-06
0.01370808
-0.01547141
0.003221864
0.002622673
-0.01308553
0.01411476
-0.01670341
-0.006310759
0.02417215
-0.027846
0.008752195
0.008675423
-0.02919205
0.01743618
-0.004558247
-0.02888432
0.02044616
-0.007629646
-0.03058489
0.0190974
-0.005265158
-0.03445343
0.01588648
-0.002098777
-0.03899056
0.01214014
-0.00079175
-0.04233041
0.009266946
-0.001531028
-0.04349025
0.007632425
-0.003210701
-0.0427587
0.006708291
-0.004410296
-0.03995304
0.006632546
-0.005426776
-0.03421263
0.007508468
-0.007606142
-0.02374175
0.00947092
-0.01313507
-0.008519715
0.01322442
-0.02218309
0.01961801
-0.02801255
-0.01642558
0.0173608
0.01769084
-0.02024644
0.02222385
0.002731906
-0.02189797
0.02273666
-0.002729487
-0.0254069
0.02192423
-0.001759393
-0.02940534
0.02079508
-0.001635133
-0.0324936
0.01966619
-0.003317575
-0.03410243
0.0190854
-0.005221099
-0.03375122
0.01883173
-0.006638584
-0.03153954
0.01852772
-0.007376659
-0.02762689
0.01794039
-0.007615183
-0.02217372
0.01707312
-0.007695984
-0.01539088
0.01590733
-0.007824481
-0.007448416
0.01425555
-0.008167504
0.001793272
0.01209744
-0.009166185
0.01101678
0.008776758
-0.009540574
0.01810966
0.004989643
-0.008294752
0.02288421
0.001396221
-0.006541264
0.02458048
-0.002121965
-0.003815773
0.02221844
-0.005770206
0.000145714
0.01695252
-0.009689352
0.00374337
0.01216472
-0.01357839
0.004010879
0.01127872
-0.01558691
0.0006507718
0.01382496
-0.01580793
-0.00225887
0.01512809
-0.01608863
-0.0007716941
0.01051403
-0.01512275
0.006464944
-0.004123437
-0.0101715
0.01818553
-0.0189866
0.004037538
0.01918257
-0.02550414
0.0171546
0.006290092
-0.0283655
0.0221814
0.0005473342
-0.0311604
0.02073514
0.0005845045
-0.03492012
0.01700314
0.002102244
-0.03900538
0.0133459
0.002400811
-0.04202152
0.01077323
0.001163261
-0.04282475
0.009227087
-0.0009679095
-0.04124886
0.008146765
-0.003064276
-0.03745361
0.007447786
-0.004601971
-0.0307601
0.007242254
-0.006395941
-0.01935889
0.007744042
-0.009418519
-0.002986043
0.009777894
-0.01162624
0.01489748
0.003368994
-0.0111786
0.002790783
0.02400903
-0.01467618
0.006698328
0.01631856
-0.01761922
0.01196824
0.01178589
-0.02228786
0.01411868
0.0109559
-0.02734451
0.01706302
0.007548432
-0.03086725
0.01966929
0.002440827
-0.03271773
0.02160235
-0.001603899
-0.03306742
0.02251883
-0.004079188
-0.03177533
0.02227902
-0.005591547
-0.02852025
0.02096649
-0.006673437
-0.02347197
0.01927405
-0.007517547
-0.016969
0.01738978
-0.008139199
-0.009400155
0.01525246
-0.008595929
-0.000854069
0.01278122
-0.009196201
0.00763225
0.009808532
-0.009437043
0.0144327
0.006843335
-0.008414935
0.01886767
0.003858644
-0.006616075
0.02020044
0.0006993204
-0.003872554
0.01790263
-0.003247242
7.269984e-05
0.01319951
-0.008267344
0.003610142
0.009459062
-0.01270232
0.003131889
0.00954894
-0.01471167
-0.0007754884
0.01288994
-0.01507324
-0.004006363
0.0159785
-0.0154988
-0.00375868
0.01535688
-0.01564471
0.0008941599
0.007087393
-0.01306063
0.01066351
-0.006962072
-0.005166458
0.02258365
-0.0192819
0.008879378
0.0198766
-0.02685722
0.01691698
0.01205036
-0.0319785
0.01617395
0.008885714
-0.0360701
0.01256809
0.007825777
-0.03957983
0.009786679
0.006500584
-0.04203911
0.008501388
0.004311407
-0.04258393
0.008087938
0.0014256
-0.04054899
0.008080708
-0.00207751
-0.03609773
0.008028039
-0.004965411
-0.02881027
0.008193182
-0.007959061
-0.01655282
0.008285108
-0.01222622
0.0009449124
0.008285793
-0.0147568
0.01116735
0.00560527
-0.00436436
-0.01781207
0.0234436
-0.00488611
-0.01645206
0.02141434
-0.007514238
-0.009972508
0.02285258
-0.01332973
-0.004892454
0.02330312
-0.0198619
0.002414878
0.01980323
-0.02548139
0.01128364
0.01276769
-0.02958096
0.01849735
0.006168554
-0.03174079
0.0225639
0.001255692
-0.03170162
0.02416968
-0.002615573
-0.0292401
0.02350562
-0.005524804
-0.02461995
0.0216787
-0.007417317
-0.01841678
0.01949539
-0.00857639
-0.01119061
0.01708586
-0.009167399
-0.003187511
0.01433285
-0.009526011
0.004812716
0.01137618
-0.009461709
0.01142963
0.008647122
-0.008127923
0.01560712
0.005860153
-0.005767692
0.01636555
0.002625504
-0.002229584
0.01338459
-0.002208201
0.002413291
0.00911628
-0.008373079
0.004834503
0.006734931
-0.0126135
0.002677908
0.007913724
-0.0139541
-0.001657679
0.01192673
-0.01414917
-0.004835124
0.01612834
-0.01475378
-0.005051842
0.01792758
-0.01570192
-0.002047317
0.01490137
-0.01585614
0.005264356
0.004773577
-0.0127272
0.01686029
-0.01076873
-0.004618967
0.02817288
-0.02414667
0.003189887
0.02628125
-0.03203355
0.002926585
0.020331
-0.03655885
0.0003043731
0.01604939
-0.03947579
-1.826437e-05
0.01217593
-0.04122678
0.001640557
0.008324473
-0.04125657
0.003996083
0.004064905
-0.03873942
0.006684045
-0.0009524844
-0.03356414
0.008693441
-0.00546369
-0.02633662
0.01058917
-0.008885205
-0.01525725
0.0118776
-0.01341821
0.001228141
0.01331516
-0.01916835
0.01850979
-0.003507678
-0.002826348
-0.032092
0.01588156
0.0005464825
-0.03104245
0.009421991
0.004590276
-0.02608816
0.01051632
0.003924013
-0.02154568
0.01581354
-0.002304709
-0.01345822
0.0205201
-0.01268337
-0.002558036
0.02268871
-0.02185845
0.008521889
0.01788508
-0.0280247
0.01755229
0.01019389
-0.03064096
0.02254199
0.003451142
-0.02962246
0.02406604
-0.002223109
-0.02572754
0.02300855
-0.005698902
-0.0199013
0.02086734
-0.007517697
-0.01294488
0.01830079
-0.008309456
-0.005344385
0.01530504
-0.008514599
0.002293546
0.0120452
-0.008116643
0.008681915
0.008953951
-0.006307906
0.01248064
0.005828755
-0.003210112
0.01223524
0.001727938
0.001828046
0.008167036
-0.00440513
0.007002806
0.004813067
-0.01031545
0.0058922
0.004320135
-0.01313894
0.001516412
0.0065645
-0.01347053
-0.002395253
0.01094735
-0.01344223
-0.00499051
0.01560113
-0.01429762
-0.005276831
0.01871216
-0.01595174
-0.003267855
0.01849896
-0.01779858
0.001525824
0.01370696
-0.01821869
0.009412823
0.004958591
-0.01654453
0.01964588
-0.00754455
-0.01359579
0.02828536
-0.02050812
-0.013599
0.02861512
-0.02936077
-0.01416698
0.02261137
-0.03490728
-0.01162091
0.016686
-0.03807746
-0.007215789
0.01190301
-0.03857871
-0.001841578
0.006555717
-0.03604215
0.004441434
0.000230656
-0.03033777
0.009764392
-0.00612178
-0.02325165
0.01437188
-0.00983268
-0.0124745
0.01805017
-0.01542888
0.003875878
0.02217611
-0.02296433
0.02753135
-0.002663505
-0.00193514
-0.03539313
0.004340294
0.005603069
-0.0314857
-0.008556421
0.01347612
-0.02878907
-0.006563617
0.01573078
-0.0273606
0.002315341
0.01307126
-0.02303231
0.01092161
0.005751507
-0.01531876
0.01873005
-0.007163606
-0.00452696
0.0245082
-0.01995784
0.007440246
0.02165193
-0.02740578
0.01685718
0.01224826
-0.02902077
0.02155365
0.003445802
-0.02654498
0.02243425
-0.002406627
-0.02144184
0.02080155
-0.005327123
-0.0149377
0.01823033
-0.00651414
-0.007860866
0.01504449
-0.006659252
-0.0007889178
0.01129008
-0.005976067
0.005101705
0.007220061
-0.003625148
0.008140439
0.002933279
0.0006102674
0.006915111
-0.002563203
0.006450628
0.00330668
-0.008449636
0.008639348
0.001892452
-0.01209868
0.003976773
0.002808452
-0.013224
-0.000196373
0.00546832
-0.01298799
-0.002777194
0.009723679
-0.01287004
-0.004766153
0.01419361
-0.01393724
-0.00509491
0.01733901
-0.01590641
-0.003740005
0.0180118
-0.01833933
-0.0008984346
0.01557405
-0.02048053
0.00375687
0.01001081
-0.02160146
0.009513593
0.001952113
-0.02192967
0.01521077
-0.008867134
-0.02236247
0.01855155
-0.01957031
-0.02164902
0.01747026
-0.02683517
-0.01862358
0.01388087
-0.03121421
-0.01376863
0.01092304
-0.03276885
-0.006951837
0.007098819
-0.03105489
0.002235258
0.001373118
-0.02579468
0.01132814
-0.00582939
-0.01863783
0.01908562
-0.01062003
-0.0079855
0.02571851
-0.01653715
0.006656118
0.03167979
-0.02193684
0.03181258
0.004426286
0.0007612871
-0.02617919
-0.01071563
0.01066132
-0.02333662
-0.01930214
0.0190942
-0.02448436
-0.01373133
0.02323199
-0.02549965
-0.006937009
0.02336206
-0.02423276
0.0001046505
0.01903849
-0.02032016
0.008213725
0.009710984
-0.01342867
0.01695468
-0.00581516
-0.003571883
0.02517158
-0.02043171
0.008106857
0.02230541
-0.02669254
0.01634674
0.01080735
-0.02658874
0.01971393
0.00217071
-0.02289904
0.01942816
-0.00252495
-0.01726212
0.01707683
-0.00443738
-0.01102862
0.01390513
-0.004774486
-0.005174801
0.01005621
-0.004047288
-0.0005790682
0.005378264
-0.001961175
0.001751029
-0.0002762085
0.001881893
0.001534286
-0.006710157
0.005479291
0.0004328229
-0.01015663
0.003992206
0.0002696788
-0.01183599
0.0008400348
0.001435483
-0.01261128
-0.001067853
0.004038358
-0.01252391
-0.002698961
0.008076568
-0.01236658
-0.004563876
0.01223248
-0.01338594
-0.005105886
0.01507414
-0.01525471
-0.004211271
0.01581701
-0.0174812
-0.00255444
0.01408256
-0.01977581
-8.155116e-05
0.009817891
-0.0217598
0.003210506
0.003225778
-0.02319277
0.006609256
-0.005154641
-0.02404347
0.008923773
-0.01336374
-0.02333591
0.009091835
-0.01921794
-0.02073298
0.007586759
-0.02265613
-0.01632004
0.006092391
-0.02409415
-0.009821675
0.004936162
-0.02331391
-0.0004149038
0.003014115
-0.01948459
0.01086671
-0.002033522
-0.01266541
0.02094687
-0.007485418
-0.003329034
0.02924495
-0.0111738
0.006338316
0.03516342
-0.01089826
0.0321695
0.007719559
0.002265483
-0.01183963
-0.01726109
0.0136918
-0.01154772
-0.02433385
0.02223809
-0.01609592
-0.01780214
0.02698357
-0.01900811
-0.01199778
0.02855632
-0.0197453
-0.006864436
0.02696035
-0.0185801
-0.001047855
0.0211043
-0.01533999
0.006754754
0.009225288
-0.009392894
0.01653559
-0.008501312
-0.0005270987
0.02524189
-0.02172816
0.009939252
0.01897514
-0.02537873
0.01546753
0.007597078
-0.02386637
0.01701599
0.000848225
-0.01953234
0.01537155
-0.002413771
-0.01430095
0.01250433
-0.003325952
-0.009623531
0.009094769
-0.002909518
-0.006378579
0.005005657
-0.00176829
-0.004637728
-8.027663e-05
-0.0005918861
-0.003390919
-0.005826617
-0.0007043962
-0.002239238
-0.008856718
-0.001073816
-0.001748941
-0.01058908
-0.0006698709
-0.0006463337
-0.01208624
-0.000930654
0.001926824
-0.01230497
-0.002524034
0.006015804
-0.01200919
-0.004632612
0.01012533
-0.01258439
-0.005496212
0.01281058
-0.01398127
-0.004874712
0.01351879
-0.01560001
-0.00374432
0.01200927
-0.01729851
-0.002288573
0.008140595
-0.01909849
-0.0001851419
0.002234
-0.02079349
0.002115001
-0.004350507
-0.02183424
0.003101602
-0.009902143
-0.02099093
0.002257354
-0.01320556
-0.01869153
0.0008127592
-0.01400304
-0.0149915
-0.0003950714
-0.01255244
-0.01019316
-0.00025154
-0.01017498
-0.004733586
0.00360022
-0.009242952
0.002182302
0.01025439
-0.005643612
0.01099401
0.008519925
0.0009102228
0.02006111
0.004674478
0.00611521
0.02859328
0.003829067
0.02871932
0.01141321
0.0006935084
0.003094057
-0.01640427
0.012995
0.001789927
-0.02686167
0.02217272
-0.005480956
-0.02064261
0.02791953
-0.009933825
-0.01552412
0.03049724
-0.01202623
-0.01099966
0.03037445
-0.01262474
-0.006626271
0.02722709
-0.01197579
-0.001057102
0.01949758
-0.009691379
0.007181556
0.004442855
-0.004333373
0.01792649
-0.01313155
0.003681214
0.02324592
-0.02255623
0.01110853
0.01366195
-0.02388056
0.01380219
0.004730925
-0.02133366
0.01333436
-7.876537e-05
-0.01700381
0.01096107
-0.002082538
-0.01286187
0.008282029
-0.002357396
-0.009725308
0.00515386
-0.00204509
-0.007541661
0.001363454
-0.002133354
-0.00593535
-0.003158857
-0.002697429
-0.004296374
-0.007132513
-0.001947632
-0.003635038
-0.009706237
-0.0004713328
-0.002727849
-0.01183427
-0.0006068637
-0.0001235491
-0.01220755
-0.002655915
0.004135438
-0.01171143
-0.004984784
0.008388608
-0.01159152
-0.006072749
0.01108074
-0.01228834
-0.005531799
0.01180339
-0.0131847
-0.004510075
0.01029821
-0.01415176
-0.003164114
0.00628856
-0.01533353
-0.001354677
0.0005121254
-0.01682796
0.0002418134
-0.004546208
-0.01779417
-0.0003969348
-0.007297773
-0.01660653
-0.002687576
-0.007700569
-0.01426376
-0.004517374
-0.005867142
-0.01107956
-0.005573129
-0.001830233
-0.007657899
-0.005584876
0.003121467
-0.004403019
-0.003517909
0.006126683
-0.0004056729
0.002533432
0.007913234
0.004861635
0.007611047
0.009745399
0.01127878
0.009723596
0.009418329
0.01915185
0.01228877
0.02344782
0.01678262
-0.002823113
0.01480844
-0.009746415
0.008586573
0.01196705
-0.02262634
0.0194289
0.002849451
-0.02001708
0.02662769
-0.001334935
-0.01653767
0.03034165
-0.003636743
-0.01275957
0.03115964
-0.00500272
-0.009130284
0.02954684
-0.005872736
-0.00518399
0.02453853
-0.006030199
0.00074277
0.01401941
-0.004071759
0.009704
-0.003073814
0.0005682569
0.01986112
-0.01804199
0.006838442
0.01934342
-0.02318729
0.009837455
0.009580629
-0.02256808
0.01040617
0.003022671
-0.01920428
0.008796093
-0.0002559034
-0.01543457
0.007091424
-0.001418625
-0.01236657
0.005064693
-0.00165903
-0.009934876
0.002336476
-0.001970444
-0.00795369
-0.001436883
-0.00222772
-0.006264558
-0.005947722
-0.001494766
-0.005480625
-0.009124527
-0.0004013521
-0.004455737
-0.01145087
-0.001033841
-0.001569038
-0.01201702
-0.003245528
0.002890554
-0.01143606
-0.005422713
0.007342969
-0.01070085
-0.006440034
0.01020014
-0.01077356
-0.005761319
0.01104114
-0.01114216
-0.004477385
0.009324126
-0.01151876
-0.002646623
0.004728322
-0.01226332
-0.0002832473
-0.001156866
-0.01347512
0.0007886052
-0.004893438
-0.01384652
-0.001698761
-0.005601047
-0.01207437
-0.004876049
-0.004133125
-0.00953262
-0.006595842
-0.0007467346
-0.006892517
-0.007175552
0.004179287
-0.004460633
-0.00678457
0.009543775
-0.002309212
-0.00546712
0.01437577
1.104771e-05
-0.00262555
0.01707029
0.003319552
0.001683886
0.01719994
0.007591008
0.006329249
0.01330521
0.01299629
0.01252567
0.0181059
0.02047121
-0.007991655
0.0201954
0.002038377
0.002055206
0.01684284
-0.01583151
0.01504695
0.006859958
-0.01780731
0.02370893
0.004532505
-0.01527687
0.02853259
0.0029439
-0.01197044
0.03012378
0.001749025
-0.008889364
0.02929945
0.0004315945
-0.005979919
0.02586605
-0.0008936975
-0.002076228
0.01830239
-0.001302803
0.00461154
0.004285769
0.0003288335
0.0143272
-0.01256955
0.002635471
0.02149709
-0.02219234
0.004868146
0.01538916
-0.02348358
0.005709573
0.007020176
-0.02098002
0.005147292
0.002371952
-0.01760929
0.004681655
0.0004297104
-0.01477088
0.003968511
-0.0002751021
-0.01240945
0.002328473
-0.000894661
-0.01021866
-0.0007238773
-0.001518227
-0.008320381
-0.005030883
-0.001609061
-0.007004126
-0.008285925
-0.001425433
-0.005424505
-0.01055501
-0.002306095
-0.00225094
-0.01139156
-0.004167859
0.002337165
-0.01107142
-0.005859439
0.007041523
-0.01018509
-0.006552996
0.01022705
-0.01011892
-0.005444338
0.01126362
-0.01048769
-0.003461973
0.009127725
-0.01087986
-0.0004243425
0.003724248
-0.01174989
0.002937629
-0.002325312
-0.01229601
0.00307267
-0.00499506
-0.01117014
-0.001477865
-0.004199228
-0.008534107
-0.005367497
-0.001451508
-0.005645537
-0.007063534
0.002816406
-0.003439117
-0.007469497
0.007990659
-0.001671774
-0.007013022
0.01328085
-0.0001954665
-0.005937364
0.01793334
0.001316767
-0.004158366
0.02119268
0.003498999
-0.001319859
0.0213857
0.007001296
0.002748948
0.01603731
0.01114591
0.009605669
0.01524044
0.02068414
-0.01196101
0.02127126
0.01059635
-0.003314209
0.01793537
-0.0106449
0.01097614
0.008664894
-0.01676633
0.02087011
0.007892808
-0.01388537
0.02646898
0.007165097
-0.01022521
0.02866228
0.006437834
-0.007205293
0.02841235
0.00523041
-0.004787774
0.02586314
0.003538913
-0.001962227
0.01967021
0.0019704
0.003085824
0.00798032
0.001017097
0.01149739
-0.009077327
-0.0005207571
0.0210925
-0.02144644
-0.001479784
0.0199341
-0.02399588
-0.0008788635
0.01052385
-0.02174561
-0.0003274104
0.00475758
-0.01863313
0.0007269985
0.002487665
-0.01635881
0.001580728
0.001728289
-0.01464533
0.001189875
0.000907404
-0.0127697
-0.000919423
-0.0003900585
-0.01073011
-0.004473723
-0.0015979
-0.0087932
-0.00738415
-0.002340008
-0.006343602
-0.009496785
-0.003552048
-0.002607344
-0.01049924
-0.005201097
0.002245823
-0.01056356
-0.006439915
0.007244792
-0.0100629
-0.006629703
0.01076051
-0.01056436
-0.004811478
0.01174867
-0.01161461
-0.001725264
0.008906786
-0.01277207
0.002784217
0.003180926
-0.01369929
0.005818388
-0.002243273
-0.01283606
0.004216056
-0.003943415
-0.009686662
-0.001212138
-0.002402821
-0.005951084
-0.005082962
0.0009988766
-0.002651834
-0.006798495
0.005557162
-0.0004718388
-0.007355516
0.01069184
0.001057318
-0.007155758
0.01577603
0.002249827
-0.006355571
0.02015952
0.003473594
-0.00497718
0.02318211
0.005221724
-0.002827742
0.02334079
0.008095019
0.001019791
0.01726827
0.0113378
0.008257501
0.01477923
0.01957485
-0.01400085
0.02018951
0.01471646
-0.006603858
0.01704734
-0.007307036
0.007703425
0.009423839
-0.01555356
0.01818975
0.00948768
-0.01255321
0.02425139
0.009474514
-0.008581942
0.02693901
0.009143433
-0.005470278
0.02720095
0.008121281
-0.003109686
0.02507608
0.006348217
-0.0004525036
0.01924655
0.004241493
0.00407543
0.00765072
0.001645616
0.01187891
-0.009466367
-0.00275257
0.02075745
-0.02153254
-0.006767085
0.01905254
-0.02375628
-0.006436002
0.009525723
-0.02140778
-0.005325564
0.004513501
-0.01858983
-0.003535518
0.003361903
-0.01700064
-0.001730576
0.003490895
-0.01620981
-0.001153445
0.003063534
-0.01512536
-0.002240661
0.001450164
-0.01321976
-0.004714224
-0.0008278107
-0.01065752
-0.006816231
-0.002816329
-0.00732364
-0.00836237
-0.004686043
-0.002941221
-0.009248771
-0.006375696
0.002245011
-0.009685025
-0.007273558
0.007396352
-0.00998622
-0.006831295
0.01085024
-0.01157233
-0.004252876
0.01124411
-0.01376875
-0.0001054022
0.008006733
-0.0155164
0.004165937
0.003065582
-0.01559262
0.005142297
-0.0007084935
-0.01299789
0.002294677
-0.001420137
-0.008379991
-0.001955641
0.0002966916
-0.003755183
-0.004748412
0.003693509
-6.101823e-05
-0.006259738
0.00807926
0.00239122
-0.006989804
0.01298517
0.003950276
-0.007069729
0.01781752
0.005053719
-0.006497645
0.02196149
0.006080525
-0.005244445
0.0246715
0.007482184
-0.00310365
0.02438365
0.009529958
0.001014443
0.0175656
0.01156415
0.008824985
0.01466062
0.01951107
-0.01471848
0.01815106
0.01642153
-0.008110489
0.01597615
-0.006171812
0.005384799
0.009208625
-0.01358275
0.0156839
0.009560296
-0.01071269
0.02183066
0.01007931
-0.006768569
0.02485541
0.009934184
-0.003650312
0.0254925
0.00890932
-0.001096301
0.02357323
0.006998262
0.001815733
0.01779129
0.004481782
0.006403428
0.005525129
0.001182264
0.01407116
-0.01115264
-0.005209522
0.02106865
-0.02115948
-0.00961214
0.01496502
-0.02216591
-0.008544604
0.005193008
-0.01963284
-0.007089243
0.00148329
-0.01737278
-0.005890551
0.002359392
-0.01668699
-0.00467842
0.004231449
-0.0168665
-0.004086255
0.004683232
-0.01656664
-0.00440136
0.003019319
-0.01492957
-0.005417919
-0.0002256885
-0.01192226
-0.006127148
-0.003521531
-0.008009997
-0.00653523
-0.006069208
-0.003305736
-0.006988244
-0.007817776
0.001923017
-0.007795989
-0.008413356
0.006740897
-0.009116368
-0.007315223
0.009611642
-0.01180696
-0.004453674
0.009617284
-0.01476127
-0.0008383537
0.0071485
-0.01629229
0.001535649
0.004046778
-0.01518057
0.00109044
0.002165415
-0.01152781
-0.001080647
0.002150689
-0.006552296
-0.002988667
0.003742551
-0.001591105
-0.00442497
0.006724233
0.002427494
-0.00560341
0.01067063
0.005192936
-0.00637978
0.01522919
0.006764516
-0.00657572
0.01977329
0.007718762
-0.006060084
0.02363473
0.008355164
-0.004698886
0.0258836
0.009052335
-0.002120733
0.02500012
0.009499969
0.002796039
0.01763047
0.009688558
0.01119598
0.01288663
0.02107192
-0.01456555
0.01477008
0.01768376
-0.009232357
0.01415064
-0.004034271
0.003264019
0.007709333
-0.01110381
0.01328031
0.00808223
-0.008731307
0.01934563
0.008993207
-0.004813284
0.02252797
0.008722649
-0.001564921
0.02328396
0.007371254
0.001407092
0.02145755
0.005145621
0.00455472
0.01596536
0.002027702
0.009195941
0.004501873
-0.002071383
0.01653553
-0.01072547
-0.009819384
0.02216266
-0.01966497
-0.01293162
0.01458892
-0.02050478
-0.009889539
0.004524863
-0.01811157
-0.00716317
0.0002057822
-0.01623115
-0.006150682
0.0009096084
-0.01581687
-0.005829017
0.002930097
-0.01623781
-0.005571631
0.003587783
-0.01617438
-0.005258087
0.001941444
-0.01468619
-0.004705755
-0.001580308
-0.0118823
-0.003749559
-0.005080598
-0.008271425
-0.002896622
-0.007624889
-0.003988266
-0.003025012
-0.009125753
0.0007831458
-0.004497095
-0.00936943
0.005053541
-0.007056605
-0.007909303
0.007504469
-0.01042199
-0.005575865
0.008027368
-0.0133825
-0.003638288
0.007230348
-0.0144319
-0.002670909
0.006138365
-0.01290924
-0.002643884
0.005673143
-0.009291997
-0.003019072
0.006082956
-0.004599629
-0.003291035
0.00748308
0.0003013016
-0.003798445
0.009953574
0.004534402
-0.004598974
0.01333264
0.007473521
-0.005220981
0.01736664
0.008853933
-0.005314982
0.02143597
0.009372226
-0.004649846
0.02470523
0.009297113
-0.002938464
0.02633868
0.008397484
0.0004732971
0.02469473
0.006472869
0.006240675
0.01715897
0.004178307
0.01465028
0.008419697
0.02305216
-0.01390495
0.008131294
0.02033187
-0.01089786
0.008173363
0.00252907
0.0008996885
0.003779611
-0.00775021
0.01099192
0.004555333
-0.006418703
0.0169178
0.00563205
-0.002113378
0.01987407
0.004962098
0.001510238
0.02051425
0.003190552
0.004502684
0.0188987
0.0004810887
0.007547315
0.01442248
-0.003715505
0.01192646
0.005550459
-0.008987028
0.01799232
-0.00717094
-0.0155051
0.02085679
-0.0160155
-0.01675595
0.01518855
-0.01831036
-0.01227072
0.007282405
-0.01718881
-0.007975275
0.002357748
-0.01561451
-0.005927567
0.0008428228
-0.01488275
-0.005132072
0.0008969963
-0.01469097
-0.004402523
0.0004587269
-0.01421882
-0.003156875
-0.001344768
-0.01318889
-0.001270633
-0.00383483
-0.011745
0.0008741613
-0.005966587
-0.009680918
0.002181224
-0.007515242
-0.006506752
0.001474928
-0.008498376
-0.002280858
-0.0011989
-0.00873909
0.002060421
-0.004870648
-0.008008173
0.005200362
-0.00826895
-0.006875343
0.007133634
-0.01070705
-0.006170169
0.008132947
-0.01153956
-0.005319944
0.008772976
-0.01028839
-0.004492688
0.009428083
-0.007279369
-0.003671137
0.01021796
-0.003187651
-0.002923893
0.0114336
0.001352019
-0.002629038
0.01336424
0.005504874
-0.002850998
0.01602715
0.008332812
-0.00307831
0.01917898
0.009375179
-0.002945686
0.02234371
0.009068092
-0.001946058
0.02470439
0.007554463
0.0004590798
0.02526857
0.004341729
0.004676453
0.02252884
-0.000107186
0.01051302
0.01516072
-0.004540536
0.01725783
0.001664935
0.02297818
-0.01341394
-0.002303521
0.0236637
-0.01282967
-0.003298103
0.01057851
-0.001371665
-0.003160883
-0.004326991
0.00921871
-0.001775759
-0.003624831
0.01468572
-0.0008558462
0.002046503
0.01714177
-0.001964613
0.005613929
0.01796899
-0.00406069
0.007794456
0.0172081
-0.007281566
0.01020883
0.01409938
-0.01176374
0.01319418
0.007718992
-0.01591373
0.01559352
-0.00170953
-0.01879153
0.01519164
-0.009853053
-0.01860268
0.01276448
-0.01396441
-0.01444501
0.009212264
-0.01491976
-0.009351494
0.005205235
-0.01437135
-0.005714853
0.001988279
-0.01344197
-0.003337006
-0.0002568239
-0.01275869
-0.001212683
-0.001899754
-0.01258823
0.001126474
-0.003126698
-0.01304195
0.003812546
-0.003946125
-0.01386893
0.006089931
-0.004253484
-0.01383472
0.006492836
-0.004656819
-0.01151078
0.004197811
-0.005762636
-0.007054134
0.0004519441
-0.007179607
-0.001765379
-0.003341475
-0.008102677
0.002945771
-0.00616491
-0.008165549
0.006745482
-0.007844503
-0.007980107
0.009407813
-0.008550236
-0.006848511
0.01142029
-0.007818396
-0.005474217
0.01302785
-0.005676946
-0.003981895
0.01425438
-0.00251895
-0.002423358
0.01534307
0.001218953
-0.001198955
0.01673276
0.004634532
-0.0004472421
0.01850324
0.006882939
3.818089e-05
0.0204467
0.007265151
0.0007382637
0.02211712
0.005750453
0.002370607
0.02288525
0.0022751
0.005334403
0.02177735
-0.002960445
0.009231704
0.01820032
-0.008851523
0.01310372
0.01178652
-0.01364553
0.01624832
-0.005231541
0.01931282
-0.01380088
-0.01084108
0.02227333
-0.01362408
-0.01231207
0.008817666
-0.002949841
-0.01079299
-0.002878725
0.006739275
-0.01139095
0.0006238897
0.01187291
-0.0109977
0.006464011
0.01470189
-0.01165633
0.008379986
0.01617641
-0.01289129
0.009072766
0.01604359
-0.01495343
0.009727948
0.01386503
-0.01726381
0.009806833
0.009668897
-0.01862094
0.009237434
0.003720976
-0.01886926
0.008637284
-0.003124518
-0.01777964
0.008952254
-0.00865088
-0.01452184
0.008818438
-0.01135572
-0.009582495
0.00618437
-0.01212807
-0.00459679
0.002695404
-0.01165209
-0.0004952766
-0.0005864322
-0.01123738
0.002827331
-0.002294703
-0.01214542
0.005900631
-0.002472992
-0.01452692
0.008599122
-0.001695705
-0.01751855
0.009851503
-0.0005720077
-0.01903056
0.008462384
-0.0006419013
-0.01678789
0.00484363
-0.003416004
-0.01125065
0.001142608
-0.007051877
-0.00473848
-0.001731967
-0.009071795
0.001256427
-0.003779781
-0.009424296
0.006408007
-0.004963198
-0.009073659
0.0102798
-0.005689426
-0.007675587
0.01329909
-0.005553166
-0.006031992
0.01568968
-0.004349099
-0.004257269
0.0173312
-0.002316127
-0.002189555
0.01828104
0.0001496103
-1.355004e-05
0.018952
0.00208537
0.001964809
0.0195085
0.002950336
0.003631813
0.01984555
0.001982282
0.005327183
0.01968865
-0.001054857
0.007421789
0.01866634
-0.005880612
0.009646675
0.01647346
-0.01174374
0.01140667
0.013189
-0.01720023
0.01200991
0.008585512
-0.02065699
0.0119369
-0.01066132
0.01422756
-0.01584422
-0.01173913
0.01700177
-0.01247249
-0.01096274
-0.004016916
-0.002442895
-0.01223355
-0.007918463
0.004737843
-0.01629623
-0.001169371
0.008986354
-0.01730261
0.003719077
0.01183188
-0.01729458
0.004543391
0.01347155
-0.01700282
0.004396335
0.01373389
-0.01698752
0.003883506
0.0127954
-0.01706129
0.00305973
0.01086188
-0.01675566
0.002637066
0.007778249
-0.01602124
0.003040524
0.002895887
-0.01460894
0.004751397
-0.002904093
-0.01162371
0.006321746
-0.006856366
-0.006821553