/*--------------------------------*- C++ -*----------------------------------*\
| =========                 |                                                 |
| \\      /  F ield         | OpenFOAM: The Open Source CFD Toolbox           |
|  \\    /   O peration     | Version:  2212                                  |
|   \\  /    A nd           | Website:  www.openfoam.com                      |
|    \\/     M anipulation  |                                                 |
\*---------------------------------------------------------------------------*/
FoamFile
{
    version     2.0;
    format      ascii;
    arch        "LSB;label=32;scalar=64";
    class       volScalarField;
    location    "2000";
    object      T;
}
// * * * * * * * * * * * * * * * * * * * * * * * * * * * * * * * * * * * * * //

dimensions      [0 0 0 1 0 0 0];

internalField   nonuniform List<scalar> 
96000
(
299.9983
299.896
299.8987
299.911
299.932
299.9442
299.9455
299.9426
299.9383
299.9329
299.9253
299.9143
299.8979
299.889
299.9031
299.9186
299.9303
299.9417
299.9534
299.9614
299.9651
299.9644
299.9601
299.9577
299.9644
299.9808
299.9862
299.9878
299.9882
299.9884
299.9884
299.9919
299.99
299.9844
299.9784
299.9726
299.9658
299.9634
299.9729
300.0824
299.8854
299.8277
299.8441
299.8737
299.8979
299.9162
299.9209
299.9163
299.911
299.9053
299.8989
299.8911
299.8787
299.8683
299.8736
299.8875
299.904
299.9227
299.9395
299.9488
299.9532
299.9519
299.9474
299.9473
299.959
299.9886
299.9922
299.9895
299.9905
299.9924
299.9927
299.9946
299.9913
299.9848
299.98
299.9762
299.975
299.9842
300.0237
300.1373
299.9221
299.8796
299.8864
299.8983
299.9111
299.9201
299.9207
299.9174
299.9144
299.9114
299.909
299.9056
299.8976
299.8838
299.8796
299.8922
299.9092
299.9255
299.9381
299.9466
299.9521
299.951
299.9475
299.9471
299.9526
299.9774
299.9881
299.9837
299.9817
299.9822
299.9815
299.9795
299.9749
299.9704
299.9681
299.9668
299.9655
299.9627
299.9489
299.9476
299.9439
299.9202
299.9216
299.9247
299.9274
299.9262
299.9235
299.9224
299.9218
299.9208
299.9191
299.9155
299.9077
299.8932
299.8857
299.8965
299.9092
299.9221
299.9344
299.9459
299.9514
299.9484
299.9455
299.9455
299.9487
299.9624
299.9872
299.9862
299.9826
299.9813
299.9789
299.9749
299.97
299.9655
299.9617
299.9596
299.9617
299.9712
299.9791
299.9816
299.9611
299.947
299.9505
299.9511
299.945
299.9347
299.9291
299.9281
299.9282
299.9273
299.9251
299.9216
299.9155
299.9044
299.8976
299.9063
299.9181
299.9281
299.9367
299.9472
299.9494
299.9445
299.9417
299.9428
299.9461
299.9556
299.9783
299.9913
299.9868
299.9829
299.9797
299.976
299.9719
299.9682
299.9643
299.961
299.9602
299.9682
299.9888
300.0214
299.9785
299.9652
299.9751
299.9752
299.9624
299.9451
299.9368
299.9345
299.9336
299.9324
299.93
299.9266
299.922
299.9146
299.9096
299.9169
299.9293
299.9408
299.9479
299.9505
299.9443
299.9392
299.9377
299.9394
299.9433
299.9509
299.9672
299.9923
299.9984
299.9922
299.9877
299.9841
299.9804
299.977
299.9734
299.9687
299.9658
299.9695
299.9822
300.016
299.9782
299.961
299.9692
299.9743
299.9701
299.9557
299.9448
299.942
299.9409
299.9388
299.9365
299.9335
299.9299
299.9247
299.9209
299.9279
299.9422
299.9581
299.9653
299.9484
299.9318
299.9315
299.9333
299.9355
299.9397
299.9465
299.9587
299.9775
299.9991
300.0079
300.0017
299.9934
299.9879
299.9846
299.9831
299.975
299.9688
299.9675
299.9708
300.0027
299.9688
299.9464
299.9573
299.9703
299.9758
299.9732
299.96
299.95
299.9485
299.9463
299.9439
299.9417
299.9389
299.9352
299.9312
299.9373
299.9546
299.9742
299.9666
299.9308
299.9173
299.9241
299.9286
299.9311
299.9355
299.9422
299.9519
299.9648
299.9805
299.996
299.9987
299.9921
299.9891
299.9893
299.9927
299.983
299.972
299.9659
299.9633
299.9939
299.9536
299.934
299.9518
299.9658
299.9733
299.9761
299.9739
299.9632
299.9563
299.9533
299.951
299.9496
299.9478
299.9452
299.9415
299.9418
299.9522
299.9588
299.9372
299.9109
299.9089
299.9191
299.9243
299.9263
299.9307
299.9376
299.9466
299.9576
299.9706
299.9838
299.9919
299.9924
299.9944
300.0028
300.0162
300.0113
299.9901
299.9778
299.971
299.9895
299.939
299.9257
299.9466
299.9599
299.9674
299.9717
299.9747
299.9733
299.9679
299.9605
299.9572
299.9561
299.9553
299.9534
299.9501
299.9455
299.9384
299.9214
299.9107
299.9046
299.9085
299.9191
299.9226
299.9224
299.9261
299.9332
299.9423
299.9535
299.9662
299.9781
299.9876
299.9948
300.0043
300.0231
300.0635
300.1073
300.0735
300.0188
299.9877
299.9902
299.9276
299.9186
299.9399
299.9525
299.9604
299.9656
299.97
299.9742
299.9748
299.9731
299.9636
299.9617
299.961
299.9595
299.9563
299.9502
299.9402
299.9266
299.9174
299.9155
299.9195
299.9265
299.9252
299.9208
299.9229
299.9297
299.9391
299.9509
299.9644
299.975
299.9819
299.9886
299.9982
300.0113
300.0292
300.0572
300.0579
300.0287
300.0038
299.9987
299.9307
299.9216
299.9357
299.9455
299.9535
299.9595
299.965
299.9706
299.9774
299.9827
299.9746
299.9683
299.9667
299.9649
299.9617
299.9562
299.948
299.9393
299.9337
299.9344
299.9373
299.9377
299.9313
299.9223
299.9219
299.9276
299.9372
299.9507
299.9641
299.9711
299.9747
299.9793
299.9838
299.9866
299.9894
299.994
300.0003
300.0081
300.0164
300.0171
299.9451
299.9273
299.933
299.9419
299.9504
299.9572
299.9632
299.9697
299.9786
299.9883
299.9898
299.9789
299.9742
299.9713
299.9677
299.9626
299.9561
299.9503
299.9478
299.9493
299.9496
299.946
299.9377
299.9257
299.9222
299.9264
299.937
299.9506
299.9625
299.9669
299.9678
299.9699
299.9707
299.971
299.9717
299.9737
299.9785
299.9884
300.0076
300.0241
299.9561
299.932
299.9338
299.9429
299.9529
299.9606
299.9669
299.9738
299.9828
299.9935
300.0004
299.9939
299.9861
299.9805
299.9757
299.9702
299.964
299.9589
299.9571
299.9578
299.9555
299.9502
299.9425
299.9288
299.9221
299.9251
299.9358
299.9479
299.957
299.9604
299.9607
299.961
299.9602
299.9603
299.9614
299.9641
299.969
299.9778
299.9953
300.0153
299.9614
299.9363
299.936
299.9452
299.9569
299.9656
299.9725
299.9799
299.9894
300.0004
300.0099
300.0101
300.0019
299.9946
299.9882
299.9811
299.9735
299.9675
299.9647
299.9628
299.9575
299.951
299.9448
299.9309
299.9212
299.9243
299.9332
299.9421
299.9486
299.9518
299.9527
299.9525
299.9519
299.9524
299.9543
299.9578
299.9631
299.9715
299.9862
300.0024
299.9645
299.9395
299.9373
299.9469
299.9604
299.9702
299.9779
299.9863
299.9966
300.0087
300.0213
300.024
300.0158
300.0096
300.005
299.9973
299.9874
299.9786
299.9722
299.9652
299.9568
299.9494
299.9446
299.9316
299.9198
299.9218
299.928
299.9343
299.939
299.9421
299.9439
299.9441
299.9444
299.9459
299.9486
299.9528
299.9585
299.9666
299.9784
299.9903
299.9669
299.9421
299.937
299.9473
299.963
299.974
299.983
299.9924
300.0037
300.018
300.0388
300.0451
300.0334
300.0239
300.0208
300.0141
300.0024
299.9892
299.9764
299.964
299.9535
299.9461
299.9402
299.9303
299.9198
299.9184
299.9218
299.9266
299.9308
299.9339
299.9355
299.9361
299.9376
299.9407
299.9449
299.9499
299.9556
299.9633
299.9731
299.9812
299.9686
299.9452
299.9337
299.9443
299.9645
299.9779
299.9879
299.9982
300.0114
300.0316
300.0549
300.0642
300.0548
300.0429
300.0345
300.025
300.0111
299.9936
299.9761
299.9609
299.9485
299.9399
299.9341
299.9266
299.9204
299.9166
299.9178
299.9211
299.9242
299.9266
299.9279
299.9291
299.9322
299.9371
299.9424
299.9477
299.9546
299.963
299.9708
299.9753
299.9678
299.9459
299.9226
299.9353
299.9654
299.9823
299.9932
300.0062
300.0232
300.0415
300.0537
300.0665
300.072
300.0633
300.0489
300.0324
300.0132
299.9944
299.9767
299.9605
299.9461
299.9353
299.9296
299.921
299.9173
299.9132
299.9128
299.915
299.9176
299.9198
299.9216
299.9238
299.9279
299.9334
299.9398
299.9473
299.9556
299.9626
299.9665
299.9691
299.9641
299.9455
299.9181
299.9352
299.9726
299.9901
300.001
300.0131
300.0245
300.0329
300.0416
300.0584
300.0778
300.0786
300.0655
300.0433
300.0188
299.9989
299.9808
299.9637
299.9477
299.9348
299.9264
299.9171
299.9124
299.9078
299.9064
299.908
299.9106
299.9133
299.916
299.9205
299.9265
299.9336
299.9413
299.949
299.9547
299.9574
299.9577
299.9615
299.9532
299.9288
299.922
299.9391
299.967
299.9821
299.9936
300.0032
300.0106
300.0179
300.028
300.0468
300.0725
300.0887
300.0846
300.0601
300.0309
300.0076
299.9865
299.9668
299.9492
299.9352
299.9248
299.9156
299.9085
299.9028
299.8995
299.8998
299.9027
299.9061
299.9105
299.9181
299.9266
299.9348
299.9416
299.9459
299.9478
299.9481
299.948
299.9544
299.9461
299.9259
299.9155
299.9306
299.9457
299.9594
299.9731
299.985
299.9948
300.0045
300.0163
300.0364
300.0667
300.0988
300.1062
300.0784
300.0445
300.0145
299.9902
299.9691
299.951
299.9371
299.9267
299.9174
299.9076
299.8997
299.8931
299.89
299.8926
299.8971
299.905
299.9162
299.9258
299.9323
299.9357
299.9369
299.9375
299.9382
299.9395
299.9485
299.9459
299.9346
299.909
299.9195
299.9324
299.9473
299.9628
299.9764
299.9876
299.9978
300.009
300.0275
300.0628
300.104
300.1204
300.0889
300.0485
300.0169
299.9922
299.9719
299.9557
299.9426
299.9321
299.9216
299.9097
299.8984
299.888
299.8798
299.8787
299.8845
299.8995
299.913
299.9212
299.9252
299.9265
299.9268
299.9277
299.93
299.9326
299.9437
299.9656
299.9544
299.9195
299.92
299.9317
299.9457
299.9607
299.9739
299.9853
299.9961
300.0082
300.0284
300.0656
300.1045
300.1105
300.0817
300.0444
300.0164
299.9942
299.9766
299.9622
299.9487
299.9374
299.9259
299.9132
299.8992
299.8842
299.8682
299.86
299.8749
299.8962
299.9089
299.9159
299.9199
299.9213
299.921
299.9215
299.9248
299.9277
299.9398
299.9911
299.9557
299.9302
299.9318
299.9399
299.9502
299.9619
299.973
299.9832
299.9939
300.0081
300.0307
300.064
300.092
300.0899
300.0615
300.0343
300.0135
299.9956
299.9805
299.9668
299.9534
299.9418
299.9304
299.9178
299.9024
299.8821
299.8603
299.8601
299.8841
299.9022
299.912
299.9172
299.9188
299.9182
299.9176
299.9176
299.92
299.9224
299.9358
299.9815
299.9485
299.9335
299.9364
299.9417
299.9499
299.9598
299.9695
299.979
299.99
300.0055
300.0302
300.0594
300.0737
300.0616
300.039
300.0224
300.0078
299.9939
299.9807
299.9681
299.9563
299.9458
299.9355
299.9237
299.9084
299.8871
299.8742
299.8891
299.9046
299.9126
299.9165
299.9173
299.9161
299.9148
299.9139
299.9126
299.9139
299.9151
299.9304
299.9663
299.9403
299.9327
299.9343
299.9387
299.9465
299.9563
299.9662
299.9764
299.9888
300.0052
300.0281
300.0511
300.0542
300.0368
300.0207
300.0095
299.9988
299.988
299.9772
299.9669
299.9576
299.9492
299.9405
299.9302
299.9164
299.9004
299.9016
299.9106
299.9149
299.9167
299.9167
299.9153
299.9132
299.9111
299.9088
299.9056
299.9059
299.9055
299.9222
299.9557
299.9346
299.9308
299.931
299.9358
299.9445
299.9557
299.9675
299.9782
299.9896
300.0037
300.0212
300.035
300.0331
300.0179
300.0062
299.9972
299.9886
299.98
299.9717
299.964
299.9574
299.9512
299.9444
299.9358
299.9242
299.9144
299.9154
299.9176
299.9181
299.9175
299.9159
299.9134
299.9101
299.9064
299.9021
299.8967
299.8963
299.8946
299.9139
299.9506
299.9325
299.9308
299.9318
299.9383
299.9492
299.9622
299.9737
299.9784
299.979
299.9805
299.9835
299.9889
299.9981
300.0001
299.9945
299.9872
299.9797
299.9724
299.9659
299.9604
299.9558
299.9515
299.9464
299.9392
299.93
299.9234
299.9227
299.922
299.9205
299.9184
299.9153
299.9114
299.9065
299.901
299.8943
299.886
299.8851
299.8827
299.9051
299.9499
299.9366
299.9351
299.939
299.9491
299.9641
299.9711
299.9647
299.954
299.95
299.9525
299.9564
299.962
299.9718
299.9853
299.9894
299.9826
299.9738
299.9664
299.9607
299.9566
299.9536
299.9509
299.9474
299.9423
299.9355
299.9295
299.9272
299.9252
299.9227
299.9193
299.9149
299.9095
299.903
299.8954
299.8861
299.8745
299.8725
299.8683
299.8924
299.9535
299.9441
299.9432
299.9498
299.9588
299.9641
299.9553
299.9434
299.9397
299.9411
299.9446
299.9481
299.952
299.9579
299.9694
299.9836
299.9852
299.9729
299.9622
299.956
299.953
299.9516
299.9505
299.949
299.9462
299.9416
299.936
299.9317
299.9288
299.9255
299.9211
299.9154
299.9086
299.9004
299.8907
299.8786
299.8636
299.8611
299.8567
299.8816
299.9635
299.96
299.9583
299.9597
299.9562
299.9496
299.9438
299.9402
299.9393
299.9401
299.942
299.9435
299.9455
299.9489
299.9557
299.9677
299.9792
299.9744
299.9582
299.9515
299.9498
299.9501
299.9508
299.9512
299.9505
299.9479
299.9434
299.9379
299.9337
299.9295
299.924
299.9171
299.9089
299.8992
299.8876
299.873
299.8547
299.8516
299.8491
299.8771
299.9779
299.9779
299.9658
299.9577
299.9508
299.946
299.9428
299.9409
299.9403
299.9404
299.9407
299.9402
299.9409
299.9428
299.9468
299.9547
299.9643
299.9695
299.9535
299.9471
299.9476
299.9498
299.952
299.9539
299.9547
299.9536
299.9502
299.9445
299.9392
299.9339
299.9273
299.9194
299.9103
299.8997
299.8869
299.8705
299.8498
299.8465
299.8474
299.8816
299.9766
299.9724
299.9593
299.9529
299.9478
299.9446
299.9425
299.9412
299.941
299.9411
299.9402
299.9379
299.9379
299.9388
299.941
299.9463
299.9544
299.9618
299.9535
299.9429
299.9463
299.9509
299.954
299.9567
299.9584
299.958
299.955
299.9493
299.9429
299.9369
299.9297
299.9214
299.9121
299.9012
299.888
299.871
299.8499
299.8462
299.8502
299.889
299.9697
299.9645
299.9543
299.95
299.9462
299.9441
299.9426
299.9416
299.9414
299.9413
299.9396
299.9358
299.9352
299.9358
299.9374
299.9406
299.9466
299.9543
299.9565
299.9398
299.946
299.953
299.9565
299.9594
299.961
299.9604
299.957
299.9509
299.9442
299.9382
299.9311
299.9229
299.9135
299.9025
299.8893
299.8729
299.8535
299.8497
299.8568
299.8952
299.9647
299.9591
299.9506
299.9481
299.9455
299.9443
299.9433
299.9424
299.9421
299.9414
299.9391
299.9339
299.9327
299.9332
299.9345
299.9369
299.9417
299.9472
299.9517
299.9456
299.9477
299.9548
299.9582
299.9606
299.9616
299.9604
299.9565
299.9504
299.9443
299.9386
299.9318
299.9237
299.914
299.9026
299.8899
299.8763
299.8615
299.8585
299.8666
299.9028
299.9623
299.954
299.9458
299.9461
299.9452
299.9452
299.9447
299.9438
299.9433
299.9416
299.938
299.9311
299.9295
299.93
299.9312
299.933
299.9369
299.9417
299.946
299.9444
299.9483
299.956
299.9587
299.9602
299.9604
299.9587
299.9549
299.9496
299.9439
299.9383
299.9318
299.9233
299.9124
299.9007
299.8912
299.8831
299.8727
299.8687
299.8704
299.8996
299.965
299.9512
299.9424
299.9462
299.947
299.948
299.9476
299.9459
299.9446
299.9411
299.9351
299.9255
299.9241
299.9249
299.9263
299.9277
299.9306
299.9347
299.9391
299.9414
299.9541
299.9571
299.958
299.9588
299.9586
299.9569
299.9536
299.9493
299.9443
299.9385
299.9317
299.9228
299.9116
299.9022
299.8985
299.8965
299.8904
299.8867
299.8837
299.8987
299.9733
299.9571
299.9467
299.9528
299.9556
299.9564
299.9541
299.9495
299.946
299.9395
299.9294
299.9151
299.9143
299.9162
299.9186
299.9209
299.9242
299.9273
299.9345
299.9426
299.96
299.9564
299.9568
299.9576
299.9577
299.9564
299.9536
299.9498
299.9454
299.9398
299.9329
299.9245
299.9145
299.9073
299.9074
299.9085
299.899
299.8887
299.8807
299.8996
299.9924
299.9962
299.9763
299.9787
299.9872
299.9885
299.9741
299.9638
299.9559
299.9412
299.9204
299.8861
299.896
299.9095
299.919
299.9265
299.9324
299.9366
299.9437
299.9513
299.962
299.9562
299.9592
299.9621
299.9639
299.9643
299.9632
299.961
299.9577
299.9529
299.9467
299.9399
299.9308
299.9266
299.93
299.9308
299.918
299.9031
299.8948
299.9056
299.8852
299.8956
299.9085
299.9295
299.9309
299.9279
299.9287
299.9247
299.9164
299.904
299.8875
299.8771
299.8702
299.8676
299.8765
299.8954
299.9179
299.9294
299.9401
299.9479
299.9521
299.952
299.95
299.9532
299.9705
299.9903
299.9989
300.001
300.0031
300.0094
300.0135
300.0208
300.0219
300.0231
300.0222
300.0103
299.985
299.9717
299.966
300.0845
299.8812
299.8443
299.8691
299.8904
299.8924
299.8995
299.9012
299.8972
299.8965
299.8962
299.8952
299.8952
299.8937
299.8896
299.8842
299.8859
299.8912
299.8997
299.9203
299.936
299.9425
299.9418
299.9409
299.9475
299.969
299.9902
299.9932
299.9889
299.9893
299.9907
299.992
299.9957
300.0003
300.0024
300.0033
299.9964
299.9893
299.9821
299.9825
300.0195
299.913
299.88
299.8925
299.8993
299.9015
299.9033
299.904
299.9047
299.9074
299.9091
299.9106
299.9114
299.9097
299.9048
299.8995
299.9006
299.9058
299.9137
299.9257
299.9365
299.9418
299.9427
299.9447
299.9512
299.9657
299.9867
299.9882
299.9832
299.9807
299.9807
299.9814
299.9827
299.9838
299.9843
299.9852
299.9865
299.9874
299.9865
299.9726
299.9537
299.9476
299.923
299.9205
299.9201
299.9153
299.9094
299.9074
299.9106
299.9156
299.9191
299.9207
299.9204
299.9185
299.9148
299.9115
299.9108
299.9132
299.9187
299.9259
299.936
299.9419
299.9443
299.9472
299.9523
299.9626
299.9767
299.9881
299.9867
299.9838
299.9816
299.9794
299.9786
299.9793
299.9789
299.9765
299.9748
299.9749
299.9807
299.9869
300.0398
299.9631
299.9491
299.9483
299.9455
299.935
299.9212
299.9138
299.9149
299.9208
299.9245
299.9253
299.9247
299.9233
299.9211
299.919
299.9182
299.9195
299.9236
299.9292
299.9377
299.9423
299.9447
299.9472
299.9516
299.9594
299.9705
299.9849
299.9921
299.9896
299.9852
299.9817
299.98
299.9806
299.9822
299.9783
299.9739
299.9707
299.9726
299.9827
300.0549
299.9725
299.964
299.9706
299.9688
299.9577
299.9406
299.9269
299.9219
299.9237
299.9274
299.9286
299.9281
299.927
299.9256
299.924
299.9233
299.9244
299.9281
299.9336
299.9399
299.9426
299.9444
299.9463
299.9497
299.9557
299.9651
299.9786
299.9955
299.9996
299.9941
299.9888
299.986
299.9868
299.9893
299.9877
299.9794
299.9753
299.9746
299.9739
300.0186
299.9661
299.9482
299.9495
299.9577
299.9613
299.9576
299.9462
299.9358
299.9318
299.9305
299.9326
299.9329
299.9321
299.931
299.9298
299.9292
299.9297
299.9334
299.9411
299.9416
299.9417
299.9435
299.9449
299.9475
299.9521
299.9595
299.9702
299.9852
299.9997
300.0039
299.9975
299.9917
299.9911
299.9954
300.0031
299.991
299.9831
299.9728
299.9594
300.0103
299.9404
299.9161
299.9206
299.9392
299.957
299.9647
299.9633
299.9559
299.9463
299.939
299.9371
299.9383
299.9381
299.9372
299.9361
299.9355
299.9358
299.9416
299.9453
299.9405
299.9404
299.942
299.9431
299.9449
299.9483
299.9537
299.9614
299.9715
299.9823
299.9908
299.9928
299.9909
299.9914
299.9978
300.016
300.0086
299.9942
299.9726
299.955
300.0195
299.9151
299.9151
299.9295
299.9402
299.9484
299.9598
299.9676
299.9705
299.9651
299.9523
299.9453
299.9441
299.9441
299.9432
299.9418
299.9405
299.9398
299.942
299.9414
299.939
299.9394
299.9405
299.9409
299.9419
299.9445
299.9483
299.954
299.9611
299.9692
299.9767
299.9827
299.9879
299.9939
300.0035
300.0219
300.0302
300.0222
300.0019
299.987
300.0113
299.9182
299.9248
299.9369
299.9448
299.9494
299.9529
299.9623
299.9728
299.9784
299.9684
299.9565
299.9519
299.9502
299.9488
299.9471
299.9451
299.9426
299.9407
299.9401
299.9395
299.9395
299.9397
299.939
299.939
299.9408
299.9438
299.9479
299.9539
299.9605
299.9668
299.9731
299.9806
299.989
299.9986
300.0126
300.029
300.032
300.0245
300.0149
299.9984
299.9215
299.9304
299.9402
299.9457
299.9499
299.9532
299.9579
299.9689
299.9807
299.9823
299.9695
299.9617
299.9575
299.9545
299.9522
299.9499
299.947
299.9442
299.9426
299.9419
299.9412
299.9398
299.9378
299.9366
299.9377
299.9402
299.9437
299.9484
299.9541
299.9586
299.962
299.9654
299.969
299.9726
299.9775
299.9861
299.9895
299.9909
299.9987
299.9986
299.9189
299.9316
299.9402
299.945
299.9493
299.9533
299.9582
299.9661
299.9786
299.9881
299.9838
299.9731
299.9662
299.9612
299.9577
299.9547
299.9516
299.9486
299.9466
299.9453
299.9436
299.9407
299.9374
299.9352
299.9356
299.9375
299.9408
299.9458
299.9502
299.9525
299.9543
299.9561
299.958
299.9596
299.9615
299.9655
299.9717
299.9792
299.9947
300.0093
299.928
299.9299
299.9382
299.9441
299.9492
299.9538
299.9591
299.9662
299.9772
299.9894
299.9951
299.9866
299.9765
299.9691
299.9642
299.9606
299.9569
299.9533
299.9504
299.9483
299.9453
299.9414
299.9375
299.9345
299.9341
299.9355
299.9395
299.9452
299.9487
299.9488
299.9491
299.9501
299.9514
299.953
299.9549
299.9579
299.9636
299.9729
299.9891
300.0093
299.9451
299.9272
299.9377
299.9442
299.9502
299.9555
299.961
299.9682
299.9786
299.9916
300.0027
299.9999
299.9872
299.9774
299.9716
299.9675
299.9634
299.9587
299.9544
299.9509
299.9467
299.942
299.9375
299.9339
299.9327
299.9338
299.9387
299.9442
299.9465
299.9453
299.9451
299.9459
299.9471
299.949
299.9514
299.9546
299.9597
299.9683
299.9827
299.9996
299.9521
299.9246
299.9379
299.945
299.9519
299.9578
299.9638
299.9716
299.9824
299.9964
300.009
300.0072
299.9934
299.9834
299.9779
299.9743
299.9701
299.9648
299.9589
299.9533
299.9478
299.9421
299.9372
299.9331
299.931
299.9323
299.9367
299.9408
299.9419
299.941
299.9413
299.9424
299.9439
299.946
299.9488
299.9525
299.9574
299.9648
299.9766
299.9894
299.9542
299.9225
299.9375
299.9452
299.9531
299.9599
299.9669
299.9759
299.9877
300.0028
300.0152
300.0095
299.9949
299.9857
299.9818
299.9796
299.976
299.9702
299.9629
299.9552
299.9481
299.9416
299.9362
299.9318
299.9292
299.9298
299.9325
299.935
299.9359
299.9367
299.9378
299.9392
299.941
299.9435
299.9467
299.9506
299.9554
299.9621
299.9722
299.9826
299.9557
299.9219
299.9358
299.9442
299.9531
299.9614
299.9704
299.9807
299.9935
300.0097
300.0224
300.0147
299.9989
299.9888
299.9843
299.9821
299.9785
299.9725
299.9641
299.9554
299.9476
299.9405
299.9343
299.9297
299.9272
299.9266
299.9278
299.9299
299.9318
299.9332
299.9345
299.9361
299.9385
299.9414
299.9449
299.9489
299.9535
299.9607
299.9701
299.9792
299.9591
299.9268
299.9333
299.9418
299.9525
299.9632
299.9742
299.9852
299.9986
300.0145
300.0245
300.0185
300.0051
299.9943
299.9873
299.9825
299.9775
299.9708
299.963
299.9551
299.9472
299.9394
299.9323
299.9271
299.9253
299.9251
299.926
299.9273
299.9287
299.93
299.9313
299.9332
299.936
299.9394
299.9431
299.9471
299.9529
299.9604
299.9681
299.9754
299.9634
299.9423
299.9309
299.9381
299.9525
299.9669
299.9777
299.9885
300.0007
300.0116
300.0161
300.0147
300.0087
299.9999
299.9912
299.9834
299.9767
299.9702
299.9633
299.9562
299.9481
299.9392
299.9309
299.9251
299.9236
299.9235
299.9242
299.9251
299.9259
299.9269
299.9281
299.9303
299.9335
299.9371
299.9413
299.9469
299.953
299.9587
299.9622
299.9677
299.9615
299.941
299.9287
299.9358
299.9558
299.9689
299.9779
299.9866
299.9942
299.9997
300.0037
300.0071
300.0074
300.002
299.9938
299.9847
299.9778
299.9719
299.966
299.9594
299.9513
299.9407
299.9301
299.924
299.9222
299.9218
299.9223
299.9228
299.9233
299.9238
299.9249
299.928
299.9324
299.9373
299.9423
299.9473
299.9512
299.9531
299.9521
299.9575
299.954
299.9298
299.9289
299.934
299.9501
299.961
299.9693
299.9762
299.9819
299.9872
299.9923
299.9983
300.0026
300.0003
299.9937
299.9862
299.9805
299.9759
299.9711
299.9641
299.9544
299.943
299.9299
299.9243
299.9217
299.9203
299.9203
299.9205
299.9206
299.9205
299.9218
299.9267
299.9323
299.9376
299.9419
299.9447
299.9456
299.9444
299.941
299.9483
299.9534
299.9341
299.9286
299.9319
299.9402
299.9486
299.9567
299.9641
299.9706
299.9767
299.9827
299.9895
299.9958
299.9964
299.9927
299.9878
299.9841
299.981
299.9761
299.9682
299.9574
299.9432
299.9313
299.9264
299.9226
299.92
299.9188
299.9184
299.9181
299.9173
299.9196
299.9256
299.9314
299.9356
299.9378
299.9383
299.9376
299.9356
299.9312
299.942
299.9628
299.9427
299.9284
299.9298
299.9352
299.9421
299.9499
299.9572
299.964
299.9703
299.9761
299.9826
299.9897
299.9931
299.9924
299.9894
299.9876
299.985
299.9798
299.9712
299.9598
299.9436
299.9345
299.9294
299.9247
299.921
299.9187
299.9172
299.916
299.9147
299.9183
299.9239
299.9282
299.9303
299.9307
299.9304
299.93
299.9288
299.9235
299.9377
300.0034
299.9491
299.9301
299.9305
299.9343
299.9402
299.9473
299.9543
299.9612
299.9678
299.9742
299.981
299.9882
299.9925
299.992
299.9904
299.9887
299.9861
299.9809
299.9723
299.9601
299.9458
299.9376
299.9321
299.9272
299.9229
299.9197
299.9168
299.9145
299.915
299.9182
299.9212
299.9234
299.9241
299.9238
299.9238
299.925
299.9262
299.9187
299.9349
300.011
299.9466
299.9318
299.9324
299.9354
299.9405
299.9469
299.9539
299.9609
299.9681
299.9756
299.9832
299.9896
299.9931
299.9919
299.9892
299.987
299.9843
299.979
299.9705
299.9589
299.9477
299.9401
299.9344
299.9296
299.9252
299.9211
299.9177
299.9161
299.9183
299.9195
299.9198
299.9194
299.9184
299.9179
299.9196
299.9232
299.925
299.9163
299.9329
300.0026
299.944
299.9326
299.9332
299.9359
299.9407
299.947
299.954
299.9613
299.9691
299.9775
299.9859
299.9919
299.9932
299.9903
299.9868
299.984
299.9806
299.9753
299.9672
299.9573
299.9487
299.9418
299.9362
299.9315
299.9272
299.9229
299.9204
299.9212
299.9212
299.92
299.9185
299.9167
299.9153
299.9156
299.9183
299.921
299.9216
299.9101
299.9288
299.9928
299.9402
299.9321
299.9326
299.9357
299.9407
299.9474
299.9548
299.9627
299.9715
299.9799
299.9878
299.9933
299.993
299.9888
299.9846
299.9807
299.9764
299.9708
299.9635
299.9555
299.9484
299.9423
299.9371
299.9326
299.9285
299.9247
299.9234
299.9223
299.9207
299.919
299.9172
299.9154
299.9145
299.9153
299.9167
299.9179
299.9164
299.8992
299.9183
299.9815
299.9365
299.9312
299.9314
299.9358
299.9417
299.9493
299.9572
299.9647
299.9726
299.9804
299.9882
299.9936
299.9932
299.9885
299.9833
299.978
299.9727
299.9668
299.9601
299.9532
299.947
299.9415
299.9368
299.9327
299.9291
299.9261
299.9246
299.9229
299.9212
299.9193
299.9174
299.9156
299.9143
299.9138
299.914
299.9138
299.9106
299.8866
299.9117
299.9684
299.9351
299.9314
299.9324
299.9373
299.9435
299.9504
299.9569
299.9616
299.9656
299.9703
299.9764
299.9836
299.9898
299.9898
299.9847
299.9781
299.971
299.964
299.9571
299.9506
299.9449
299.9403
299.9365
299.9331
299.9301
299.928
299.9265
299.9248
299.9227
299.9204
299.9179
299.9154
299.913
299.9113
299.9102
299.9087
299.9043
299.8759
299.9088
299.9585
299.9375
299.9327
299.934
299.9394
299.9458
299.9487
299.9483
299.9476
299.9494
299.954
299.9608
299.9703
299.982
299.9906
299.99
299.9824
299.9725
299.963
299.9546
299.9479
299.943
299.9395
299.9371
299.9351
299.9327
299.9304
299.9287
299.9266
299.9241
299.9212
299.918
299.9146
299.9112
299.9084
299.906
299.9029
299.8969
299.8617
299.8976
299.9561
299.9404
299.936
299.9378
299.9408
299.9427
299.9404
299.9376
299.9379
299.9411
299.9462
299.9521
299.9595
299.9695
299.9816
299.99
299.9882
299.9771
299.9636
299.9524
299.945
299.9412
299.9393
299.9386
299.938
299.9365
299.9341
299.9314
299.9287
299.9256
299.9221
299.9181
299.9139
299.9096
299.9056
299.9018
299.8973
299.8908
299.8509
299.8842
299.9635
299.9506
299.9453
299.9435
299.9405
299.9376
299.9357
299.9356
299.9372
299.9401
299.9437
299.9471
299.9509
299.9571
299.9669
299.9781
299.9852
299.9811
299.9651
299.9505
299.9422
299.9397
299.9396
299.9407
299.9413
299.9407
299.9387
299.9355
299.9318
299.9278
299.9234
299.9187
299.9137
299.9086
299.9035
299.8983
299.8922
299.8856
299.8435
299.8797
299.9755
299.9625
299.9502
299.9434
299.9384
299.9361
299.9354
299.9362
299.938
299.9403
299.9425
299.9436
299.9443
299.947
299.9536
299.9635
299.9734
299.979
299.9676
299.9495
299.9404
299.939
299.9407
299.943
299.9447
299.945
299.9435
299.9403
299.9361
299.9312
299.9258
299.9205
299.915
299.9094
299.9036
299.8975
299.8909
299.8858
299.8488
299.8934
299.9745
299.959
299.9465
299.9409
299.9372
299.936
299.9364
299.9377
299.9395
299.9411
299.942
299.9412
299.9392
299.9384
299.9414
299.9492
299.9589
299.9696
299.9709
299.9499
299.941
299.9402
299.9431
299.9462
299.9482
299.9489
299.9478
299.9449
299.9404
299.935
299.9292
299.9235
299.918
299.9124
299.9066
299.9004
299.894
299.8896
299.8587
299.9079
299.9686
299.9535
299.9423
299.9384
299.9362
299.9364
299.9376
299.939
299.9404
299.9412
299.9413
299.9396
299.937
299.9344
299.9334
299.9363
299.9429
299.9533
299.9666
299.9542
299.9453
299.9438
299.9467
299.9501
299.952
299.9523
299.9509
299.9477
299.9431
299.9378
299.932
299.9261
299.9205
299.9149
299.9093
299.9032
299.8965
299.8904
299.8663
299.9042
299.9638
299.9474
299.937
299.9351
299.9348
299.9364
299.9386
299.9399
299.941
299.9411
299.9405
299.9382
299.9359
299.9341
299.9329
299.9336
299.9376
299.939
299.9545
299.9646
299.9527
299.9486
299.95
299.9528
299.9544
299.9542
299.952
299.9485
299.9442
299.9389
299.9331
299.9271
299.921
299.9152
299.9098
299.9044
299.8981
299.8929
299.881
299.9062
299.9627
299.9403
299.9289
299.9304
299.9322
299.936
299.9393
299.9406
299.9417
299.9409
299.9391
299.9362
299.9341
299.9329
299.9317
299.931
299.934
299.9343
299.9425
299.9672
299.9604
299.9532
299.952
299.9537
299.9547
299.9541
299.9516
299.9479
299.9438
299.9385
299.9325
299.9259
299.9189
299.9127
299.9079
299.9047
299.9002
299.8966
299.8879
299.9015
299.9696
299.9313
299.9228
299.9282
299.9312
299.9358
299.9401
299.9412
299.9424
299.94
299.9361
299.9322
299.9307
299.9293
299.9278
299.9247
299.9267
299.9254
299.9335
299.9657
299.9688
299.9561
299.9523
299.9528
299.9536
299.953
299.9504
299.9466
299.9424
299.9371
299.9308
299.9236
299.9156
299.9085
299.9034
299.9025
299.9008
299.901
299.8937
299.8917
299.9834
299.9362
299.925
299.9303
299.9332
299.9375
299.9426
299.9421
299.9435
299.9395
299.9314
299.9247
299.9244
299.9212
299.9174
299.9099
299.9115
299.9034
299.9225
299.9581
299.9728
299.9563
299.9513
299.9513
299.9521
299.9518
299.9492
299.9445
299.9396
299.934
299.9274
299.9206
299.912
299.9028
299.8957
299.8961
299.8944
299.8845
299.8751
299.9131
299.9841
299.9823
299.9506
299.9481
299.9516
299.955
299.9565
299.9504
299.9484
299.9404
299.9198
299.8897
299.9092
299.9105
299.9086
299.9105
299.9225
299.9289
299.942
299.9606
299.9758
299.9609
299.958
299.9595
299.9614
299.9621
299.9611
299.9581
299.9531
299.945
299.9377
299.9332
299.9265
299.9232
299.9339
299.9416
299.9245
299.8992
299.8863
299.9172
299.928
299.9194
299.9366
299.9506
299.9378
299.9246
299.9252
299.9217
299.9136
299.9014
299.8892
299.8933
299.9023
299.9036
299.8954
299.8906
299.9264
299.9355
299.9389
299.9445
299.9482
299.9489
299.9496
299.9571
299.9785
299.9917
299.9947
300.0002
300.0006
300.0049
300.0111
300.0263
300.0453
300.0719
300.0847
300.0591
299.9981
299.9749
299.9771
300.0388
299.9138
299.8898
299.9051
299.9158
299.9038
299.9018
299.9003
299.896
299.8971
299.9019
299.9069
299.9124
299.9157
299.916
299.9127
299.9061
299.9059
299.9008
299.9128
299.932
299.9412
299.9431
299.9475
299.9593
299.9804
299.99
299.9885
299.9884
299.9903
299.9931
299.9967