/*--------------------------------*- C++ -*----------------------------------*\
| =========                 |                                                 |
| \\      /  F ield         | OpenFOAM: The Open Source CFD Toolbox           |
|  \\    /   O peration     | Version:  2212                                  |
|   \\  /    A nd           | Website:  www.openfoam.com                      |
|    \\/     M anipulation  |                                                 |
\*---------------------------------------------------------------------------*/
FoamFile
{
    version     2.0;
    format      ascii;
    arch        "LSB;label=32;scalar=64";
    class       volVectorField;
    location    "2000";
    object      U;
}
// * * * * * * * * * * * * * * * * * * * * * * * * * * * * * * * * * * * * * //

dimensions      [0 1 -1 0 0 0 0];

internalField   nonuniform List<vector> 
96000
(
(-0.03805788 -0.03117748 -0.01795941)
(-0.04571996 -0.01642735 -0.004729503)
(-0.02053745 -0.01250467 0.00102813)
(-0.02065242 -0.01017027 0.00673407)
(-0.02459436 -0.007821677 0.005339978)
(-0.02577225 -0.005937591 0.004005239)
(-0.0282133 -0.005894508 0.004371038)
(-0.03037511 -0.006155807 0.003195352)
(-0.02963026 -0.00632063 0.001569739)
(-0.02652752 -0.006206006 0.0001346326)
(-0.02095803 -0.005334382 -0.001752929)
(-0.01287335 -0.004210834 -0.003506057)
(-0.003227484 -0.003196057 -0.005881868)
(0.008237764 -0.002970149 -0.006904097)
(0.02004056 -0.00426397 -0.004206805)
(0.02930502 -0.007766187 0.0009618769)
(0.03216599 -0.009828302 0.004316448)
(0.03176211 -0.009680178 0.006476079)
(0.0281255 -0.00834003 0.008294772)
(0.02255952 -0.007502718 0.009253581)
(0.01676331 -0.007238239 0.009637844)
(0.01157421 -0.007282732 0.008422316)
(0.01001953 -0.006976234 0.005491604)
(0.01010554 -0.006264674 0.005453216)
(0.005357848 -0.005666431 0.01215371)
(-0.02009751 -0.002810006 0.01053684)
(-0.02993851 -0.0006941793 0.001226516)
(-0.03122347 0.0003252665 -0.003544049)
(-0.02894 0.0008258402 -0.004178929)
(-0.02847858 0.0001056968 -0.001457723)
(-0.02950752 -0.001156308 0.0003928755)
(-0.03174486 -0.003014326 0.003485166)
(-0.03662979 -0.004022233 0.004591846)
(-0.04176104 -0.004156194 0.003671858)
(-0.04510558 -0.003440238 0.001835587)
(-0.04477346 -0.001919999 -0.001177199)
(-0.03791572 0.0001338388 -0.006420808)
(-0.02467613 0.001004698 -0.01277343)
(-0.004189616 -0.0005291159 -0.01977838)
(0.01193281 -0.01008425 0.007823442)
(-0.02153195 -0.02519495 -0.01258154)
(-0.02504567 -0.007010091 -0.02759725)
(-0.01713078 -0.005992462 -0.01745705)
(-0.0212764 -0.005642381 -0.00904106)
(-0.02602875 -0.003274248 -0.007008784)
(-0.03004818 -0.001727428 -0.003960084)
(-0.03512628 -0.00172146 -0.003807622)
(-0.03714569 -0.00122518 -0.006519693)
(-0.03521589 -0.0002656986 -0.009368992)
(-0.03070732 0.001003475 -0.01184185)
(-0.02440919 0.002704108 -0.01366128)
(-0.01667845 0.004100452 -0.01483113)
(-0.007989674 0.004537227 -0.01590538)
(0.002098188 0.00343566 -0.01664144)
(0.01305154 0.0004047183 -0.01466722)
(0.02190112 -0.00514707 -0.01144556)
(0.02800148 -0.007820603 -0.008772948)
(0.03275434 -0.009000482 -0.004044282)
(0.03186481 -0.00999448 0.001563696)
(0.02598414 -0.01119294 0.004997145)
(0.01888698 -0.01254835 0.006464923)
(0.01318228 -0.01321152 0.004438706)
(0.01293843 -0.0125049 0.0008070544)
(0.01365801 -0.01114383 0.001651782)
(0.007469766 -0.008300209 0.01068245)
(-0.02461019 0.000220056 0.01063103)
(-0.03246903 0.004101613 -0.001949008)
(-0.03237608 0.007593944 -0.007670406)
(-0.03009479 0.008915709 -0.007599376)
(-0.02982177 0.008232029 -0.004486812)
(-0.03239446 0.006599911 -0.001738472)
(-0.03686181 0.003603666 -0.0006760829)
(-0.04139912 0.001032004 -0.001540929)
(-0.0440534 -0.0002978012 -0.003227909)
(-0.04479909 -0.0004029939 -0.004529247)
(-0.0430796 0.0009593103 -0.006258589)
(-0.03754273 0.003142389 -0.008509773)
(-0.02712768 0.003609153 -0.01209548)
(-0.01094244 0.0004258616 -0.01577455)
(0.004474213 -0.008651002 -0.01304255)
(-0.01653616 0.01742856 0.0001002429)
(-0.02235849 0.01958098 -0.01377704)
(-0.0201173 0.0153868 -0.01120048)
(-0.02216189 0.01345276 -0.008114315)
(-0.02632728 0.01243407 -0.005492129)
(-0.03058954 0.01069926 -0.003901387)
(-0.03423657 0.009731287 -0.004530128)
(-0.03520771 0.01022072 -0.006298644)
(-0.03347957 0.01143971 -0.007775411)
(-0.02975971 0.0128823 -0.008812146)
(-0.02446924 0.01408949 -0.009369854)
(-0.017749 0.01462857 -0.009654986)
(-0.009847028 0.01409519 -0.01018368)
(-0.0006496641 0.01230601 -0.01149863)
(0.01003409 0.008553498 -0.01124417)
(0.0183319 0.003814961 -0.008997034)
(0.02462502 -0.0001689067 -0.006369234)
(0.02845769 -0.004187204 -0.002889841)
(0.02758923 -0.008365884 0.0007193044)
(0.02250617 -0.011665 0.00333475)
(0.01618645 -0.01453015 0.0044272)
(0.01182832 -0.01569883 0.002243224)
(0.01309196 -0.01499461 -0.0007758682)
(0.01506504 -0.01442862 -0.0003218511)
(0.01266485 -0.01142922 0.005827887)
(-0.007183177 -0.002457418 0.01583272)
(-0.02668934 0.009340509 0.003789854)
(-0.02824728 0.0155738 -0.004835929)
(-0.02805956 0.01754296 -0.005997399)
(-0.02854054 0.01650881 -0.003064802)
(-0.03161941 0.01395468 5.991083e-06)
(-0.03624096 0.01054456 0.0007690024)
(-0.0405212 0.007816907 -0.000438117)
(-0.04286976 0.006342604 -0.002157601)
(-0.04307205 0.005691281 -0.003327697)
(-0.04140364 0.00611437 -0.00415547)
(-0.03730551 0.007346458 -0.005510925)
(-0.02982162 0.008553205 -0.00869586)
(-0.01718125 0.009219883 -0.01448835)
(-0.001340578 0.009633167 -0.02174197)
(-0.01224073 0.0200337 0.009222864)
(-0.01995693 0.02479043 -0.001387712)
(-0.02100492 0.02316244 -0.003895242)
(-0.02278676 0.0217424 -0.002525688)
(-0.02719836 0.0197781 -0.001849192)
(-0.03089062 0.01749528 -0.002563043)
(-0.03340518 0.01613206 -0.003758296)
(-0.03402063 0.01592689 -0.004800665)
(-0.03270299 0.01613114 -0.005429957)
(-0.02965095 0.01627832 -0.00571244)
(-0.02500904 0.0161757 -0.005887717)
(-0.01882843 0.01561987 -0.00611083)
(-0.01134775 0.01436732 -0.006586082)
(-0.003002847 0.01239786 -0.007744519)
(0.006865609 0.008671137 -0.008118463)
(0.01452389 0.0041006 -0.006813975)
(0.02061088 -3.662141e-05 -0.005330367)
(0.02412593 -0.003846482 -0.003305874)
(0.02399616 -0.00725745 -0.0004210799)
(0.01962718 -0.01054738 0.002588812)
(0.01371078 -0.0139796 0.003485831)
(0.01015995 -0.01578812 0.000932269)
(0.01209113 -0.01576641 -0.001985521)
(0.01531676 -0.01597604 -0.002144496)
(0.01476725 -0.01419568 0.00133358)
(0.00693707 -0.009004278 0.01057891)
(-0.01542813 0.008771937 0.01252052)
(-0.02294429 0.01883756 0.001545696)
(-0.02648175 0.02258111 -0.001842251)
(-0.02893292 0.02098244 -0.0003846309)
(-0.03231021 0.01730105 0.001732094)
(-0.03652257 0.01331042 0.002132337)
(-0.04043894 0.01025196 0.0009664329)
(-0.04258513 0.008367594 -0.0007338849)
(-0.04206439 0.007172274 -0.002282603)
(-0.03937274 0.00663967 -0.003469018)
(-0.03430014 0.006933105 -0.004730012)
(-0.02587594 0.00851711 -0.006560089)
(-0.01259785 0.01224626 -0.00819146)
(0.001466883 0.01847893 -0.003786797)
(-0.007994856 0.01395041 0.0151773)
(-0.01363852 0.01935754 0.009364936)
(-0.01581776 0.02168312 0.006577099)
(-0.01910894 0.02120765 0.006309851)
(-0.02475009 0.02064496 0.003890432)
(-0.02912512 0.02083685 0.0004434749)
(-0.03180205 0.02129633 -0.002005144)
(-0.03286864 0.02112482 -0.003434128)
(-0.03247467 0.02044589 -0.004332074)
(-0.03026708 0.01932098 -0.004942734)
(-0.02612816 0.01784302 -0.005453886)
(-0.02029851 0.01618848 -0.005900949)
(-0.01309542 0.01420451 -0.006392779)
(-0.005264822 0.01186549 -0.007230328)
(0.003665857 0.008774577 -0.007787451)
(0.01097923 0.005538822 -0.006934145)
(0.01687578 0.002414058 -0.005599389)
(0.01998221 -0.000684632 -0.003628199)
(0.01965044 -0.004229797 -0.0006205151)
(0.01553091 -0.008525697 0.002722596)
(0.01028806 -0.01279883 0.003028628)
(0.008077425 -0.0150154 -0.0002334458)
(0.0108142 -0.01538883 -0.003302629)
(0.01488799 -0.01565806 -0.00380361)
(0.01694801 -0.01539037 -0.00165593)
(0.01381389 -0.01111382 0.00468154)
(0.0006822686 -0.0002690482 0.01529305)
(-0.01516334 0.01537744 0.01179657)
(-0.02315341 0.02063494 0.005041829)
(-0.02920979 0.01941925 0.003809)
(-0.03369935 0.01563805 0.004249796)
(-0.03753008 0.0122608 0.003874155)
(-0.04071967 0.01007359 0.002430607)
(-0.04251335 0.008806473 0.000456083)
(-0.04171197 0.007902594 -0.001778913)
(-0.03830265 0.007142106 -0.003896224)
(-0.03270614 0.006583264 -0.006284731)
(-0.02363142 0.006221133 -0.009269992)
(-0.009195372 0.006596138 -0.01099442)
(0.004469047 0.01061311 0.0005086968)
(-0.003407518 -0.009661889 0.0140923)
(-0.004380602 -0.006590897 0.01330002)
(-0.005442829 0.001865151 0.01613678)
(-0.009232094 0.006956129 0.0170315)
(-0.01671867 0.01332224 0.01371875)
(-0.02272593 0.01777173 0.007468774)
(-0.02756098 0.02107709 0.002598345)
(-0.03076698 0.02334009 -0.0004959463)
(-0.03197092 0.02360281 -0.002691761)
(-0.03067798 0.02211046 -0.004318416)
(-0.02712982 0.0202512 -0.005448216)
(-0.02162988 0.01811504 -0.006256511)
(-0.01474907 0.01577259 -0.006845919)
(-0.007302931 0.01307531 -0.00747572)
(0.0009212965 0.01016631 -0.007844462)
(0.008170046 0.007543163 -0.00680257)
(0.01388871 0.004868791 -0.004992863)
(0.0167198 0.001944913 -0.002376331)
(0.01549122 -0.00213063 0.001404369)
(0.01093152 -0.0076759 0.004157403)
(0.006697093 -0.01223541 0.00276479)
(0.006147023 -0.01405418 -0.001054151)
(0.009595023 -0.01432102 -0.003954219)
(0.01434667 -0.0147773 -0.004461701)
(0.01785283 -0.01525228 -0.002951595)
(0.0178345 -0.01427245 0.001224982)
(0.0119554 -0.009256378 0.009506082)
(-0.002419922 0.003492692 0.01926987)
(-0.01936442 0.01400621 0.01637392)
(-0.02852148 0.01295467 0.01167503)
(-0.03450894 0.009373388 0.00924209)
(-0.03782933 0.006938593 0.007064188)
(-0.04031146 0.006309335 0.004550542)
(-0.04145697 0.006562303 0.001654709)
(-0.04035306 0.007376494 -0.001540522)
(-0.03598616 0.00812735 -0.004544368)
(-0.02999788 0.009032378 -0.007268854)
(-0.02158938 0.009639214 -0.01048646)
(-0.007927884 0.01026605 -0.01399024)
(0.004956024 0.01410019 -0.001411263)
(-0.00285265 -0.0268659 0.007253218)
(-0.002049757 -0.0271125 0.002428646)
(0.003310263 -0.02198607 0.005003016)
(0.005496086 -0.01657926 0.009625818)
(0.002960021 -0.007523975 0.01398005)
(-0.007195635 0.005952769 0.0161371)
(-0.01815569 0.01605294 0.0113039)
(-0.02541671 0.02103455 0.005133931)
(-0.0299089 0.02399905 0.0006427103)
(-0.03069362 0.02414022 -0.002543005)
(-0.02795355 0.0223185 -0.00450709)
(-0.02301159 0.02009954 -0.005660038)
(-0.01641187 0.01755525 -0.006336985)
(-0.009208088 0.01462987 -0.006799826)
(-0.001499834 0.0116077 -0.006890699)
(0.00574643 0.009005886 -0.005470683)
(0.01115135 0.006376621 -0.002972779)
(0.01341842 0.003064293 0.00107129)
(0.01057541 -0.002508753 0.005803835)
(0.005653838 -0.008997475 0.005546039)
(0.003412124 -0.01275955 0.001678354)
(0.004671976 -0.01347886 -0.001738695)
(0.008537734 -0.01347209 -0.003983573)
(0.01357336 -0.0141437 -0.004345286)
(0.01770912 -0.01545795 -0.003199238)
(0.01960779 -0.0167076 -0.0005331276)
(0.01709694 -0.01571534 0.00433914)
(0.01026676 -0.01248044 0.01163421)
(-0.0007089609 -0.007265714 0.01894294)
(-0.01513059 -0.006914249 0.01939367)
(-0.02571621 -0.008821404 0.0147544)
(-0.03237278 -0.006928362 0.01057751)
(-0.03678898 -0.003035383 0.007178862)
(-0.03896792 0.00113247 0.00299797)
(-0.03820066 0.005199937 -0.001639961)
(-0.03283955 0.008562461 -0.005520262)
(-0.02659657 0.01167583 -0.008193364)
(-0.01858043 0.01411872 -0.01182955)
(-0.004497655 0.0169552 -0.01648226)
(0.006749759 0.022876 -0.001177908)
(-0.002962653 -0.03627808 -4.983239e-05)
(0.0002558859 -0.03344102 -0.00806114)
(0.0104745 -0.02922962 -0.005467119)
(0.01577694 -0.02636062 -0.0001526757)
(0.0152904 -0.02017823 0.005451075)
(0.01111034 -0.01142732 0.01152637)
(0.0007166129 0.001560512 0.01729914)
(-0.01525646 0.01434313 0.01408118)
(-0.02503101 0.02031921 0.006184885)
(-0.02915051 0.02319376 0.0004513443)
(-0.02838391 0.02286111 -0.002727453)
(-0.02425748 0.0207764 -0.004347158)
(-0.01826032 0.01816181 -0.005125604)
(-0.01134374 0.01503531 -0.005410578)
(-0.004303754 0.01153928 -0.005209288)
(0.00268085 0.008227464 -0.003335267)
(0.007518955 0.004997319 0.0002538957)
(0.008418027 0.0001882666 0.00536867)
(0.004863991 -0.006626677 0.007820972)
(0.001785188 -0.0116064 0.003721023)
(0.001598418 -0.0132484 -3.413251e-05)
(0.003692813 -0.01293376 -0.002007019)
(0.007487982 -0.01279407 -0.003622353)
(0.01229217 -0.01377943 -0.003927769)
(0.01632553 -0.01566091 -0.003047933)
(0.01835502 -0.01797905 -0.001389441)
(0.01749729 -0.01970643 0.001264201)
(0.01333175 -0.01993109 0.004812719)
(0.006347491 -0.0194763 0.008820212)
(-0.003155986 -0.01967837 0.01161081)
(-0.01512302 -0.01903283 0.01096681)
(-0.02390663 -0.01607943 0.00854879)
(-0.02944847 -0.01134507 0.006831182)
(-0.03298138 -0.005131808 0.003802939)
(-0.03348468 0.002521598 -0.001476772)
(-0.02840131 0.009402607 -0.006386358)
(-0.02176407 0.01579164 -0.009432693)
(-0.01392946 0.02095179 -0.01284335)
(-0.0001238419 0.02625324 -0.015811)
(0.008369455 0.02998837 0.001213221)
(-0.001872288 -0.03233167 -0.007705658)
(0.004347972 -0.02813977 -0.01503166)
(0.01584831 -0.02749585 -0.01070648)
(0.0217922 -0.02748109 -0.006104795)
(0.02408163 -0.02513926 -0.001731964)
(0.02191737 -0.01945954 0.003423739)
(0.01604061 -0.01124907 0.009945813)
(0.003661892 0.0005797387 0.01768551)
(-0.01598891 0.01343577 0.01421959)
(-0.02531957 0.01905575 0.004899603)
(-0.02759192 0.02116219 -0.0004296222)
(-0.02521544 0.01996756 -0.002823837)
(-0.02021907 0.01744988 -0.003778688)
(-0.01401376 0.01418928 -0.003945682)
(-0.00783423 0.01025244 -0.003483967)
(-0.002254467 0.005636907 -0.001812804)
(0.001371984 0.0004635929 0.001644365)
(0.001903056 -0.005634609 0.004969261)
(0.0008587184 -0.01028834 0.003569083)
(8.51813e-05 -0.01236056 0.0006128305)
(0.0004139826 -0.01266026 -0.0007572771)
(0.002422291 -0.01231597 -0.001775442)
(0.00606135 -0.01219472 -0.003290581)
(0.01055705 -0.01334001 -0.003761975)
(0.01425103 -0.01534415 -0.003125116)
(0.0160405 -0.01777457 -0.002071993)
(0.0154866 -0.02025477 -0.0006650436)
(0.0124003 -0.02214076 0.001332374)
(0.006837083 -0.0232616 0.003663223)
(-0.001012028 -0.02390634 0.005399517)
(-0.0100807 -0.02329328 0.005448497)
(-0.01712256 -0.02070648 0.004306585)
(-0.02154762 -0.01626453 0.003559442)
(-0.02435056 -0.009504393 0.003058883)
(-0.0253634 0.0001817136 0.000666104)
(-0.02264656 0.01011966 -0.004921245)
(-0.01527084 0.01884941 -0.008956764)
(-0.008317171 0.02698957 -0.01086364)
(0.002986898 0.03383605 -0.009986375)
(0.007819097 0.03258209 0.002948206)
(-0.001318386 -0.01932123 -0.0120246)
(0.006995654 -0.0179009 -0.01890666)
(0.01890124 -0.02074102 -0.0139783)
(0.02512325 -0.02270052 -0.009683937)
(0.02807629 -0.0226018 -0.006106778)
(0.02817751 -0.02054649 -0.002450733)
(0.02481945 -0.0157834 0.00243741)
(0.01720982 -0.008452209 0.009663252)
(0.001042658 0.002478643 0.01773159)
(-0.01892424 0.01330837 0.01124951)
(-0.02490567 0.01736207 0.002591639)
(-0.02547813 0.01804935 -0.001272064)
(-0.02191824 0.01587856 -0.002723886)
(-0.01680317 0.01281312 -0.002954684)
(-0.01153772 0.009037952 -0.002437617)
(-0.007381555 0.00433133 -0.001422874)
(-0.004998909 -0.001787232 -0.0004616579)
(-0.004197391 -0.008577383 -0.0009671289)
(-0.002437389 -0.01039952 -0.001330072)
(-0.001631956 -0.01131448 -0.0006165345)
(-0.001333741 -0.01208781 -0.0003534398)
(0.0003745915 -0.01206157 -0.001462525)
(0.004090176 -0.01179381 -0.003258775)
(0.008576551 -0.0126776 -0.004013503)
(0.01209632 -0.0143948 -0.003514602)
(0.01375264 -0.01637884 -0.002697815)
(0.01325054 -0.01843004 -0.001709145)
(0.01049045 -0.02049372 -0.0001724627)
(0.005325065 -0.022229 0.001711198)
(-0.00153655 -0.02329138 0.002450629)
(-0.008080946 -0.0225665 0.001456498)
(-0.01255622 -0.02018112 0.0002053264)
(-0.01465914 -0.01616615 -0.0004478273)
(-0.01461877 -0.01035282 0.000272448)
(-0.01314891 -0.002143049 0.003669016)
(-0.01113987 0.008445761 0.007150256)
(-0.007282345 0.01914123 0.001811187)
(-0.001677859 0.0280855 -0.002844922)
(0.005342324 0.03449134 -0.002560339)
(0.007093738 0.03117096 0.005437168)
(-0.002881079 -0.004005233 -0.01120806)
(0.005906715 -0.004658776 -0.02142513)
(0.01838998 -0.01077456 -0.01626768)
(0.02552955 -0.01460046 -0.01226372)
(0.0295117 -0.01616006 -0.008995319)
(0.03047582 -0.01603985 -0.006056747)
(0.0292142 -0.01447982 -0.002622753)
(0.02429887 -0.01067837 0.00258288)
(0.0143981 -0.004200227 0.01095462)
(-0.006145599 0.006055998 0.01594093)
(-0.021044 0.01292742 0.00687595)
(-0.02419829 0.0150904 0.0006232553)
(-0.02314984 0.01403649 -0.001787843)
(-0.01909996 0.01140586 -0.002428152)
(-0.01456081 0.008339368 -0.002170782)
(-0.01084502 0.004717537 -0.001699677)
(-0.008239441 0.0003959041 -0.001793594)
(-0.006460315 -0.004445319 -0.002437678)
(-0.004672527 -0.007978108 -0.001655938)
(-0.003303838 -0.01005313 0.0001088613)
(-0.003160284 -0.01184766 0.000285353)
(-0.001577972 -0.01198477 -0.001462287)
(0.002199795 -0.01149091 -0.003514405)
(0.006860326 -0.01176737 -0.004465902)
(0.01037171 -0.01287035 -0.003974857)
(0.01203577 -0.01414671 -0.003143552)
(0.01154879 -0.015508 -0.002014122)
(0.008738011 -0.01705662 -0.0002824208)
(0.003266686 -0.01873574 0.001482441)
(-0.003060645 -0.01979717 0.0009763518)
(-0.006943446 -0.01870505 -0.001294732)
(-0.008433172 -0.01623224 -0.002792532)
(-0.007851118 -0.01248666 -0.003361707)
(-0.005183275 -0.007886528 -0.003000671)
(-0.0007359028 -0.003212503 -0.001059619)
(0.003820412 0.002617555 0.003478134)
(0.007077279 0.007979548 0.00589636)
(0.009210211 0.01469566 0.00505692)
(0.01057585 0.02310395 0.004781064)
(0.008273889 0.02549233 0.009103376)
(-0.005239865 0.01027388 -0.005654821)
(0.001031798 0.00806304 -0.01782865)
(0.01491818 -0.0001087903 -0.01557073)
(0.02353037 -0.005009882 -0.01290578)
(0.02885575 -0.007564541 -0.01028155)
(0.03081862 -0.008841982 -0.007883222)
(0.03032962 -0.009232178 -0.005401446)
(0.02766565 -0.00863948 -0.001880552)
(0.02030509 -0.005296284 0.004201748)
(0.007332308 0.0004018179 0.01306701)
(-0.0144212 0.008537232 0.01215879)
(-0.02242767 0.01156833 0.003721597)
(-0.02356008 0.01178576 -0.000319325)
(-0.02098876 0.00976768 -0.001689236)
(-0.01694783 0.007572182 -0.001849267)
(-0.01348941 0.005032638 -0.001630518)
(-0.01073581 0.001915568 -0.001680567)
(-0.008490476 -0.002057263 -0.001717622)
(-0.006691373 -0.006457959 -0.0007315498)
(-0.005152343 -0.009424229 0.0006023163)
(-0.004842066 -0.01163708 0.0001114963)
(-0.002989904 -0.01189259 -0.001871899)
(0.0009138815 -0.01124023 -0.00382309)
(0.005736538 -0.010778 -0.004722028)
(0.009380756 -0.01114466 -0.004097859)
(0.01122101 -0.01172716 -0.003004499)
(0.01078168 -0.01235396 -0.001341861)
(0.007459462 -0.01322371 0.001135243)
(0.00127926 -0.01462443 0.002732535)
(-0.004497718 -0.01552319 0.0005181945)
(-0.006092525 -0.01405695 -0.002640442)
(-0.005709948 -0.01157643 -0.004097344)
(-0.003273819 -0.008602487 -0.004445601)
(0.0009348731 -0.005783707 -0.004054155)
(0.006192593 -0.003248728 -0.003098315)
(0.01144335 -0.0003881232 -0.001268102)
(0.01550603 0.003742746 0.001159944)
(0.01710181 0.007893396 0.003609878)
(0.01586142 0.01371748 0.006655647)
(0.01006858 0.01914272 0.01178239)
(-0.00868729 0.01812316 0.001219686)
(-0.006092948 0.01508886 -0.01224655)
(0.009737494 0.005429637 -0.01346387)
(0.01980611 0.002112834 -0.01155819)
(0.02659682 8.031121e-05 -0.009388812)
(0.02945573 -0.00132256 -0.007486422)
(0.02962696 -0.002631888 -0.00576966)
(0.0277306 -0.003671412 -0.003567643)
(0.02266097 -0.00335271 0.000488785)
(0.0131044 -0.0003715494 0.008061727)
(-0.005181998 0.004080863 0.01477467)
(-0.02069749 0.007382693 0.008593274)
(-0.02364047 0.008240131 0.002489875)
(-0.02245001 0.007179249 -5.463241e-05)
(-0.01890268 0.006067806 -0.0007536616)
(-0.01571768 0.004678624 -0.00080389)
(-0.01314905 0.002511427 -0.0009319715)
(-0.01085428 -0.0008698211 -0.001048315)
(-0.008834706 -0.005337489 -0.0006702789)
(-0.006954143 -0.008513232 -0.0002445868)
(-0.005899598 -0.01069182 -0.0009964376)
(-0.003752106 -0.01142241 -0.002608177)
(0.0002679371 -0.01098795 -0.004095327)
(0.005280474 -0.01010053 -0.004750425)
(0.009181935 -0.009985328 -0.003788062)
(0.01140737 -0.01021412 -0.00211078)
(0.01093857 -0.01038375 0.0006267077)
(0.00684439 -0.01103029 0.00400762)
(-0.0001907634 -0.01209454 0.004752361)
(-0.005510613 -0.01208651 0.0006046802)
(-0.005344902 -0.010061 -0.003047261)
(-0.00357845 -0.007437033 -0.004473993)
(-7.024818e-07 -0.005158448 -0.004789842)
(0.004767456 -0.003244666 -0.00445684)
(0.01006662 -0.001574327 -0.003730021)
(0.01515692 0.0001578054 -0.002623063)
(0.01916014 0.002664417 -0.001026433)
(0.02128337 0.006698957 0.001040312)
(0.01941619 0.01125844 0.004605507)
(0.01152293 0.01562579 0.01182386)
(-0.01157089 0.02089208 0.005676165)
(-0.01108004 0.01766737 -0.008188465)
(0.004648069 0.007746739 -0.01255041)
(0.01653245 0.00634786 -0.01030098)
(0.02416242 0.005226444 -0.007858747)
(0.02773033 0.004251669 -0.006009081)
(0.02843095 0.00292777 -0.004648815)
(0.02710763 0.001293053 -0.003172609)
(0.02325939 8.985592e-05 -0.0003192471)
(0.01504122 0.000238866 0.005749339)
(0.0003637032 0.0003516022 0.01464985)
(-0.01926973 0.001651317 0.01358878)
(-0.02374863 0.002556304 0.00607871)
(-0.02309496 0.002628218 0.002321978)
(-0.01965089 0.002919817 0.001138541)
(-0.01687884 0.002958563 0.000833825)
(-0.01502273 0.001953151 0.0004152095)
(-0.0133048 -0.0005933357 -0.00025798)
(-0.01129 -0.004432333 -0.0007893852)
(-0.009084786 -0.007497156 -0.001149847)
(-0.007201657 -0.009685561 -0.002133176)
(-0.004340471 -0.01065851 -0.003491677)
(-7.943588e-06 -0.01062857 -0.004525113)
(0.005309246 -0.009881961 -0.004769757)
(0.009518627 -0.009933496 -0.003264922)
(0.01210438 -0.01045443 -0.0007016996)
(0.01114816 -0.01108865 0.003205091)
(0.006185547 -0.01219021 0.006164189)
(-0.0006771167 -0.01232126 0.005099854)
(-0.004896909 -0.01019413 0.000388459)
(-0.004001196 -0.007068957 -0.002910141)
(-0.001445525 -0.004037745 -0.004329232)
(0.00259601 -0.002051411 -0.004819813)
(0.007493448 -0.0005417794 -0.004724686)
(0.01268749 0.0007139656 -0.004195628)
(0.01756334 0.002060008 -0.003296166)
(0.02129106 0.004008738 -0.002031769)
(0.023439 0.00728449 -0.0001166264)
(0.02114133 0.01104631 0.003605366)
(0.01235458 0.01475359 0.01108579)
(-0.0132197 0.02053845 0.007913879)
(-0.01345381 0.01731806 -0.005566566)
(0.0007818529 0.008929176 -0.01156708)
(0.01369083 0.008657268 -0.009145534)
(0.02166232 0.008332201 -0.006468032)
(0.02579612 0.007858861 -0.00459723)
(0.02696135 0.00678481 -0.003339932)
(0.02617621 0.005038113 -0.002020334)
(0.02269154 0.003133662 0.0005844543)
(0.01479674 0.001104843 0.00626937)
(-0.0001857104 -0.002227842 0.01484343)
(-0.01960593 -0.005430977 0.0138924)
(-0.02343842 -0.004952506 0.006350191)
(-0.02262374 -0.003724177 0.003204333)
(-0.01929151 -0.001773849 0.002789078)
(-0.01701222 -1.95999e-06 0.002893909)
(-0.01603804 0.0003347678 0.002442443)
(-0.01529739 -0.001182939 0.001243653)
(-0.01381367 -0.004219381 -0.0002868443)
(-0.01132211 -0.006775649 -0.001726832)
(-0.008604885 -0.008705297 -0.003226524)
(-0.004987455 -0.009786294 -0.004545733)
(-0.0002191634 -0.01015378 -0.005210465)
(0.005413184 -0.01004136 -0.004883124)
(0.009767043 -0.0109832 -0.002811055)
(0.01198968 -0.01257018 0.0005109691)
(0.0102341 -0.01423947 0.00402907)
(0.005254334 -0.015038 0.004987675)
(3.346212e-05 -0.01322287 0.002787849)
(-0.002444123 -0.008979764 -0.0005291706)
(-0.001501477 -0.004721268 -0.002727433)
(0.001188769 -0.001365005 -0.003998122)
(0.005144493 0.0008606219 -0.004668861)
(0.009871259 0.002357905 -0.00481487)
(0.0148508 0.003512478 -0.004453898)
(0.01951761 0.004704751 -0.003628768)
(0.02300127 0.006361091 -0.002361055)
(0.02494101 0.008930537 -0.0003127577)
(0.02194025 0.01180688 0.003854951)
(0.01257412 0.01508525 0.01114677)
(-0.01389282 0.01888805 0.00908545)
(-0.01420924 0.01603764 -0.004333126)
(-0.001434247 0.009187007 -0.01012488)
(0.01120762 0.009446081 -0.007761368)
(0.01909505 0.009710274 -0.00506348)
(0.02355018 0.009545612 -0.003218205)
(0.02508088 0.008604609 -0.001909496)
(0.02469625 0.006828182 -0.0004207738)
(0.02125954 0.004586971 0.00241669)
(0.01345321 0.001497903 0.00837154)
(-0.00339645 -0.004146737 0.01565216)
(-0.01987184 -0.008983838 0.01040512)
(-0.02210286 -0.008586439 0.002891497)
(-0.02060683 -0.007468576 0.001249466)
(-0.01759138 -0.005720575 0.00288968)
(-0.01607324 -0.003720687 0.004518548)
(-0.01614721 -0.002750479 0.004525324)
(-0.01637775 -0.003279749 0.002848313)
(-0.01551218 -0.005073791 0.0001418497)
(-0.01287223 -0.006507561 -0.002543249)
(-0.009561623 -0.007563862 -0.004589453)
(-0.005513592 -0.00831957 -0.00586494)
(-0.0005764693 -0.009012327 -0.006162506)
(0.005021392 -0.009889719 -0.00513791)
(0.008908142 -0.01205408 -0.002879133)
(0.01034929 -0.0147908 -0.0002122908)
(0.008608493 -0.01658707 0.00155137)
(0.005142332 -0.01595761 0.001301602)
(0.002233338 -0.01255518 -0.0002169213)
(0.0012205 -0.007557185 -0.001511461)
(0.002000684 -0.00270177 -0.002588335)
(0.004363472 0.001133082 -0.003624959)
(0.007906617 0.003743072 -0.004371581)
(0.01226488 0.005405124 -0.004642855)
(0.0169363 0.006511284 -0.004350303)
(0.02133869 0.007398395 -0.003482303)
(0.02452204 0.008510629 -0.001978133)
(0.02605665 0.01012154 0.000582359)
(0.02234348 0.01151541 0.00538919)
(0.0126258 0.01451109 0.01242997)
(-0.0136004 0.01659789 0.0101476)
(-0.01432281 0.01529237 -0.002641817)
(-0.003394284 0.008691613 -0.008344175)
(0.008812887 0.008962338 -0.006358741)
(0.01654832 0.009637312 -0.003646931)
(0.0211255 0.009488415 -0.001730939)
(0.02286842 0.008371366 -0.0001549587)
(0.0225895 0.006391773 0.001629618)
(0.01925618 0.00368578 0.004743805)
(0.01180033 0.0001118723 0.01086477)
(-0.004131785 -0.007233503 0.01721819)
(-0.01816307 -0.01106103 0.01062982)
(-0.02052336 -0.009118685 0.002704952)
(-0.01884269 -0.007232645 0.0003801778)
(-0.01624944 -0.00655115 0.001998679)
(-0.01500364 -0.006021424 0.003916541)
(-0.01531135 -0.005645523 0.004098572)
(-0.01585963 -0.005606752 0.002198625)
(-0.01510564 -0.005653324 -0.001027768)
(-0.01271704 -0.005458371 -0.00404758)
(-0.009705573 -0.00520516 -0.006111416)
(-0.005976122 -0.005419137 -0.00711431)
(-0.001468394 -0.006397766 -0.006958617)
(0.003548998 -0.008279539 -0.005419371)
(0.006963907 -0.01148744 -0.003608879)
(0.008149789 -0.0145912 -0.00251404)
(0.007661644 -0.01583 -0.001952002)
(0.006308093 -0.01425956 -0.001816564)
(0.005322761 -0.01042252 -0.001898288)
(0.005170841 -0.005556206 -0.001920985)
(0.005937137 -0.000599377 -0.002275768)
(0.007867501 0.003554861 -0.003023877)
(0.01086012 0.006518826 -0.003684633)
(0.01466018 0.008067348 -0.003925802)
(0.01882917 0.008869546 -0.003568507)
(0.02271903 0.009188418 -0.002505127)
(0.02545394 0.009623913 -0.0004837856)
(0.02620869 0.009107113 0.002847679)
(0.02188082 0.008319253 0.008033997)
(0.01224206 0.0117385 0.01413175)
(-0.01239323 0.01220296 0.01219711)
(-0.01443006 0.01246103 0.001604644)
(-0.006057736 0.00653507 -0.005921863)
(0.006386471 0.006763094 -0.004805141)
(0.01411187 0.007760892 -0.001775627)
(0.01858858 0.007257249 0.0004663319)
(0.02011177 0.005689395 0.002229561)
(0.01987439 0.003294465 0.004183968)
(0.01691937 -0.0002468998 0.007485441)
(0.01081511 -0.005166127 0.01302899)
(-0.001071179 -0.01316543 0.01664937)
(-0.0138163 -0.01507117 0.01215885)
(-0.01760597 -0.01089204 0.006044832)
(-0.01756498 -0.007429681 0.002589249)
(-0.01557103 -0.006066082 0.001955958)
(-0.0143324 -0.005867458 0.002126127)
(-0.01407989 -0.005677761 0.00144171)
(-0.01386624 -0.004934658 -0.0004743606)
(-0.01301321 -0.00358913 -0.002798056)
(-0.01182437 -0.001861944 -0.004695394)
(-0.01040926 -0.0005134352 -0.005950905)
(-0.00811486 -0.0006169139 -0.006483146)
(-0.004204999 -0.002564001 -0.006240286)
(0.0002716725 -0.005729893 -0.005348759)
(0.004132302 -0.009337986 -0.00464813)
(0.006420538 -0.01218683 -0.004620869)
(0.007603426 -0.01304865 -0.004151081)
(0.008177967 -0.01158849 -0.003457978)
(0.008696175 -0.008240827 -0.002648119)
(0.009306901 -0.003776826 -0.001885318)
(0.01014396 0.001050619 -0.001573097)
(0.0116574 0.005382057 -0.001827776)
(0.01397205 0.008330755 -0.002195019)
(0.01691963 0.009514274 -0.002322032)
(0.02022078 0.009802143 -0.001791452)
(0.02334964 0.009597958 -0.0002721844)
(0.02505898 0.007635544 0.00248517)
(0.02455408 0.004407323 0.006207797)
(0.0195373 0.0007421323 0.01030748)
(0.01058663 0.005795019 0.01419979)
(-0.01123917 0.004203389 0.01504446)
(-0.01462231 0.004429604 0.007403957)
(-0.009050947 0.002134507 -0.003430841)
(0.004214307 0.00307289 -0.003019803)
(0.01209854 0.003554682 0.001128429)
(0.0158725 0.002321514 0.003698457)
(0.01724503 0.000171653 0.00525279)
(0.01754959 -0.003018336 0.007127476)
(0.01575525 -0.008030538 0.009658269)
(0.01143086 -0.01339147 0.01182936)
(0.003112755 -0.01774239 0.01191626)
(-0.007037124 -0.018047 0.01079346)
(-0.01255045 -0.01366759 0.008771474)
(-0.01432491 -0.00884306 0.005784126)
(-0.01410769 -0.00600254 0.003159952)
(-0.0131288 -0.004486129 0.001144476)
(-0.01221379 -0.003057577 -0.0005303585)
(-0.01176611 -0.001256455 -0.001772266)
(-0.01187715 0.001073405 -0.00256271)
(-0.01277467 0.003479278 -0.002937434)
(-0.01375703 0.004676522 -0.003352117)
(-0.01301103 0.003347298 -0.004105014)
(-0.009125116 -1.104972e-05 -0.004994915)
(-0.004262097 -0.004056901 -0.005710131)
(0.0008698045 -0.007301431 -0.005947552)
(0.0051057 -0.009389122 -0.006145532)
(0.008110384 -0.01014763 -0.005412443)
(0.0101876 -0.009114774 -0.00443713)
(0.01193375 -0.006495725 -0.003236694)
(0.01329411 -0.002782645 -0.001869204)
(0.0143413 0.001536736 -0.0007544924)
(0.01548121 0.005693284 -0.0001489808)
(0.01698672 0.008539584 6.197009e-05)
(0.01890112 0.009542475 0.0003498409)
(0.02093149 0.008848096 0.001375803)
(0.02243394 0.006238629 0.003493299)
(0.02242765 0.001744566 0.006173706)
(0.02035685 -0.003867558 0.008315137)
(0.01539462 -0.008982157 0.009428339)
(0.008047638 -0.001621411 0.01126456)
(-0.01174167 -0.009216499 0.01390527)