/*--------------------------------*- C++ -*----------------------------------*\
| =========                 |                                                 |
| \\      /  F ield         | OpenFOAM: The Open Source CFD Toolbox           |
|  \\    /   O peration     | Version:  2212                                  |
|   \\  /    A nd           | Website:  www.openfoam.com                      |
|    \\/     M anipulation  |                                                 |
\*---------------------------------------------------------------------------*/
FoamFile
{
    version     2.0;
    format      ascii;
    arch        "LSB;label=32;scalar=64";
    class       volScalarField;
    location    "1000";
    object      alphat;
}
// * * * * * * * * * * * * * * * * * * * * * * * * * * * * * * * * * * * * * //

dimensions      [1 -1 -1 0 0 0 0];

internalField   nonuniform List<scalar> 
96000
(
0.002107591
0.002157682
0.002056586
0.001933091
0.001888489
0.001866137
0.001906064
0.001946633
0.002005029
0.002028809
0.002057403
0.002063886
0.002038044
0.002016405
0.00200934
0.002007645
0.002009543
0.002024648
0.00207594
0.002143728
0.002214451
0.002282035
0.002348126
0.002384852
0.002359446
0.002293634
0.002240554
0.002262785
0.002307161
0.002366292
0.002423739
0.002461373
0.00245407
0.002400547
0.002325829
0.002233942
0.002148996
0.002119079
0.002065924
0.00194432
0.002228167
0.002198178
0.002203757
0.002166738
0.002140872
0.002115935
0.002116095
0.002133499
0.002181099
0.002218728
0.002246507
0.002253024
0.002240128
0.002232195
0.002241872
0.002260543
0.002279338
0.002302049
0.002341494
0.002388216
0.002435564
0.002480412
0.002520671
0.002547071
0.002537856
0.002476318
0.002397695
0.002413991
0.002488348
0.002555479
0.002605492
0.002628571
0.002606939
0.002549197
0.002475094
0.002386615
0.002299158
0.002242691
0.002176008
0.002039105
0.002230802
0.002290744
0.002353741
0.002351495
0.002337523
0.002310582
0.002298214
0.002297813
0.00234403
0.002381726
0.002406473
0.002415697
0.00241294
0.002417083
0.002438395
0.002466243
0.002492915
0.002519331
0.002546496
0.002572143
0.002593885
0.00260987
0.002618039
0.002611362
0.002577503
0.002509546
0.002445674
0.002476442
0.002546063
0.002600889
0.002644057
0.002671022
0.002667304
0.002631423
0.002572046
0.002492615
0.002399804
0.002308531
0.00219848
0.002035359
0.002299929
0.002407094
0.002499499
0.002518778
0.00251706
0.002496548
0.002490177
0.002497511
0.002516397
0.002534921
0.00255321
0.002565343
0.002569515
0.002577823
0.002600232
0.002627821
0.002650376
0.002665487
0.002673597
0.002673761
0.00266586
0.002650564
0.002628911
0.002598193
0.002556104
0.002501832
0.002468817
0.002500113
0.002551069
0.002588349
0.002618742
0.00264524
0.002657869
0.002646878
0.002610902
0.002552631
0.002474123
0.002375472
0.002254841
0.002087519
0.002379689
0.002526664
0.002628992
0.002664055
0.002672669
0.002663275
0.002662632
0.002664552
0.002669646
0.002679147
0.002692662
0.002704496
0.00271163
0.002719685
0.002734742
0.002749542
0.002755872
0.002751078
0.002734867
0.00270695
0.00266879
0.002624274
0.002582543
0.002548195
0.002514399
0.002492098
0.002488754
0.002510584
0.002538654
0.002555758
0.002568783
0.002585737
0.002605289
0.002615695
0.002605184
0.002568976
0.002505166
0.00240802
0.002269086
0.00207701
0.002431198
0.00262636
0.002730178
0.002775046
0.002790362
0.002789122
0.002790589
0.002791034
0.002793056
0.002799367
0.002809474
0.002817835
0.002820644
0.002819938
0.002820213
0.002817056
0.002804465
0.002779388
0.002740433
0.002688746
0.002627728
0.002565419
0.002521413
0.002491734
0.002479815
0.002491016
0.002503626
0.002511614
0.002519697
0.002521479
0.002520789
0.002526598
0.002543412
0.002566022
0.002577509
0.00256276
0.002514099
0.00242553
0.002281979
0.002084563
0.002447666
0.002687553
0.002796296
0.002846936
0.00286607
0.00286971
0.002871723
0.002871633
0.002873022
0.002877172
0.002882269
0.002883409
0.002877446
0.002864596
0.00284859
0.002827975
0.002799284
0.002758704
0.002704992
0.002640826
0.002574339
0.002514968
0.002474019
0.00245411
0.002467258
0.002495691
0.002509386
0.002508802
0.002505356
0.002499359
0.002490048
0.00248401
0.002490622
0.002515218
0.002541693
0.002547579
0.002519376
0.002450097
0.002323391
0.002134109
0.002440266
0.002715209
0.002828628
0.002880966
0.002901589
0.002905597
0.002906344
0.002905724
0.002906064
0.002906371
0.002903958
0.002895123
0.002878062
0.002853311
0.002823849
0.002790547
0.00275165
0.002704791
0.002649215
0.002589986
0.002534321
0.002488833
0.002457901
0.002452004
0.002476968
0.002507888
0.002515329
0.002507749
0.002500025
0.002492808
0.002480726
0.002465293
0.002457081
0.002471834
0.002501196
0.002518918
0.002506006
0.002450339
0.002327125
0.002130584
0.002418586
0.002714933
0.002830052
0.002880548
0.002899157
0.002901936
0.002901194
0.002899993
0.002897648
0.002891786
0.00288009
0.002860682
0.002833837
0.002800742
0.002764281
0.002724985
0.002683507
0.002639019
0.002593323
0.002551542
0.00251641
0.002488004
0.002473747
0.002483501
0.002510583
0.002523732
0.002520314
0.002511112
0.002505226
0.002500732
0.002489718
0.00246955
0.002447942
0.002446579
0.002470054
0.002492043
0.002489541
0.002447618
0.002335693
0.00214477
0.002381715
0.002687695
0.002801656
0.002848321
0.002864963
0.002869428
0.002871083
0.002869889
0.002864208
0.002852037
0.002832355
0.002805139
0.002771939
0.002734258
0.002694646
0.002654855
0.002616927
0.002582348
0.00255357
0.002532427
0.002517106
0.002508413
0.002512718
0.002527315
0.002543915
0.002545525
0.002537548
0.002528295
0.002523743
0.002520604
0.002510691
0.002490138
0.002463659
0.002448537
0.002458369
0.002475637
0.002477335
0.002444357
0.002338846
0.002143921
0.002324335
0.002628369
0.002741807
0.002788187
0.0028099
0.002822294
0.00283003
0.002830806
0.002823534
0.002807893
0.002784521
0.002754038
0.002717954
0.002679006
0.002640366
0.002604757
0.002574062
0.002549917
0.002534777
0.002529628
0.002530833
0.002536691
0.002547047
0.002559546
0.002570853
0.002569907
0.002562297
0.002554336
0.002549647
0.002545826
0.002537457
0.002522014
0.002501074
0.002482134
0.002476472
0.002482289
0.002481392
0.002451013
0.002346226
0.002137994
0.002260984
0.002541109
0.002649512
0.002704919
0.002742977
0.002769691
0.002786209
0.002791235
0.002785984
0.002772072
0.002750707
0.002721999
0.002688077
0.002651951
0.002616715
0.002585452
0.002560273
0.002542564
0.002534916
0.002536888
0.002544894
0.002556604
0.00256817
0.002577935
0.002587991
0.002589307
0.002584857
0.002579329
0.002575483
0.002572464
0.002567544
0.002558612
0.002544886
0.002527985
0.002514327
0.002508619
0.002501053
0.002468478
0.002365511
0.002152706
0.002258553
0.002460593
0.00254508
0.002616099
0.002674205
0.002716972
0.002744045
0.002756416
0.002757402
0.002749657
0.002732854
0.002708402
0.00267871
0.002646937
0.00261683
0.002591709
0.002571657
0.002555904
0.002547628
0.002547547
0.00255489
0.002566632
0.002578406
0.002587819
0.002595252
0.002600187
0.002600009
0.00259798
0.002596717
0.002596172
0.002595168
0.002591574
0.002583562
0.002570913
0.002556586
0.002545013
0.002530336
0.002491409
0.002385858
0.002168946
0.002315882
0.002501382
0.002534281
0.002575841
0.002630535
0.002679691
0.002713942
0.002733437
0.002741348
0.002738944
0.002727324
0.002708757
0.002685091
0.00265874
0.002633186
0.002612034
0.002594873
0.002579454
0.002566928
0.002560569
0.002562685
0.002571296
0.002582033
0.002591153
0.002597813
0.002602357
0.002606281
0.002608399
0.002610534
0.002613034
0.002615278
0.002615635
0.002612094
0.002604206
0.002593036
0.002580609
0.002562053
0.002518544
0.002412494
0.002192538
0.002389568
0.002590038
0.002611623
0.002628541
0.002656677
0.002687589
0.002713074
0.002730185
0.002738396
0.002737188
0.00272826
0.002713067
0.002693275
0.002670769
0.002648731
0.002630555
0.002615097
0.002599804
0.002584621
0.002572835
0.002569547
0.002574497
0.002582865
0.002590548
0.002596314
0.002600814
0.002604084
0.002609575
0.002615226
0.002620844
0.00262605
0.002629945
0.002630744
0.002627797
0.002621121
0.002610338
0.002590642
0.002545533
0.002440962
0.002219994
0.002441207
0.002659651
0.002682512
0.002684827
0.00269301
0.002707555
0.002721906
0.002732249
0.002735433
0.002731696
0.002722095
0.002707934
0.002690628
0.002673317
0.00265677
0.002642417
0.002629334
0.002614212
0.002598543
0.002584971
0.00257774
0.002578265
0.002582874
0.002587883
0.002592061
0.002595676
0.002598339
0.002602167
0.002610112
0.002619178
0.002627608
0.002635125
0.002640301
0.002642666
0.002641254
0.002633556
0.002614945
0.002570468
0.002468376
0.002247303
0.002467247
0.002689746
0.002717027
0.002712687
0.002709617
0.002713822
0.002719962
0.002723934
0.002721943
0.002714543
0.002703256
0.002689539
0.002675547
0.002662277
0.002650518
0.002641602
0.002633619
0.002622478
0.002609147
0.002596487
0.002587821
0.002583773
0.002583157
0.002583755
0.002584616
0.002585907
0.002587643
0.002589919
0.002596398
0.002608724
0.002620784
0.002632082
0.00264208
0.002650283
0.002654169
0.002650147
0.002633644
0.002590783
0.002490296
0.002265946
0.002472178
0.002690106
0.002721565
0.002714325
0.002703785
0.002700898
0.002701676
0.00270179
0.002697261
0.002687871
0.002676035
0.002663937
0.002652441
0.002642097
0.002635134
0.002631915
0.00262987
0.00262449
0.002616254
0.002606145
0.002597847
0.002590771
0.002584598
0.002579627
0.002575787
0.002573159
0.002572028
0.002572839
0.002577701
0.002591797
0.002607795
0.002622902
0.002638009
0.002652326
0.002661424
0.002660827
0.002646725
0.002606088
0.002507307
0.002276444
0.002464709
0.002675004
0.002710815
0.00270314
0.002685365
0.002675183
0.002669996
0.002667304
0.002663336
0.00265546
0.002646054
0.002637862
0.002630585
0.00262439
0.002621664
0.002621796
0.00262322
0.002623434
0.002620053
0.002613523
0.002606218
0.002597491
0.002587155
0.002576501
0.002567319
0.002560189
0.002554929
0.002552586
0.002557213
0.002572331
0.002592032
0.002610981
0.002631554
0.002651324
0.002664651
0.002666815
0.00265469
0.002616279
0.002520098
0.00228657
0.002452218
0.002656375
0.002696733
0.002690697
0.002665728
0.002646093
0.002631761
0.002623979
0.002621997
0.002620292
0.002616897
0.002614136
0.002612254
0.002611292
0.002611783
0.002613073
0.002616017
0.002619393
0.002620412
0.002617928
0.002611932
0.002602301
0.002589426
0.002574693
0.002560419
0.00254874
0.002539964
0.002534809
0.002538972
0.002556317
0.002578142
0.002600673
0.002626081
0.002649264
0.002665185
0.002669094
0.002658126
0.002621097
0.002527607
0.002295793
0.002437554
0.002638225
0.002685397
0.002683786
0.002656842
0.002625726
0.002599652
0.002581582
0.002577512
0.002582174
0.002587571
0.002592278
0.002596543
0.002600946
0.002605072
0.002607491
0.002610093
0.002614195
0.002617619
0.002618495
0.002614589
0.002604962
0.002590243
0.002573259
0.00255655
0.002541589
0.00252999
0.002523395
0.0025288
0.002546884
0.002569905
0.002594862
0.002622955
0.002647335
0.002663928
0.002668227
0.002657104
0.002619901
0.002526993
0.002293951
0.002419167
0.00261851
0.002676349
0.002683567
0.002661121
0.002626052
0.002589109
0.002559027
0.002542688
0.00254405
0.002556185
0.002569798
0.002581106
0.002590319
0.002597722
0.002601961
0.002604098
0.00260755
0.002611709
0.002614165
0.002612026
0.002605226
0.002592977
0.002576396
0.002558202
0.002540703
0.002527379
0.002521717
0.002528653
0.002546318
0.002568757
0.002594835
0.002622662
0.002646097
0.002661634
0.002664994
0.002652338
0.002613436
0.002518721
0.002282206
0.002394551
0.002593114
0.002664754
0.002685044
0.002674153
0.002644721
0.002607894
0.002570077
0.002538678
0.002523682
0.002528531
0.002545882
0.002563049
0.002576171
0.002585766
0.00259152
0.00259438
0.002597526
0.002601658
0.002604424
0.002603931
0.00260238
0.002592382
0.002578429
0.002562633
0.002546525
0.002533702
0.002529169
0.00253611
0.002552089
0.002573471
0.002599088
0.002624549
0.002645554
0.002658828
0.002660347
0.002645102
0.002603545
0.002505857
0.002267478
0.002362243
0.002560142
0.002646078
0.002681512
0.002686824
0.002670468
0.002641932
0.00260596
0.002568537
0.002537516
0.002522537
0.002528065
0.002543861
0.002557472
0.002568387
0.002575665
0.002579547
0.002582057
0.002584946
0.002588247
0.002592343
0.002593933
0.002586575
0.002576564
0.002565597
0.00255475
0.002545306
0.002541949
0.002548363
0.002562582
0.002582431
0.002605674
0.002627725
0.002645424
0.002655916
0.002655269
0.002637127
0.002592766
0.0024922
0.002255783
0.00232267
0.002520796
0.002619811
0.002669761
0.002691876
0.002691067
0.002674681
0.002646155
0.002611005
0.002574916
0.002545278
0.002529693
0.002530969
0.002539554
0.002548006
0.002554514
0.002557759
0.002558954
0.002560596
0.002564538
0.002574261
0.002579173
0.002575887
0.002571283
0.002566889
0.002561575
0.00255656
0.0025561
0.00256235
0.00257509
0.002593048
0.002613058
0.002631321
0.00264534
0.002653088
0.002650562
0.002630263
0.002583723
0.002480664
0.002249589
0.002277004
0.002477486
0.002587901
0.002649796
0.00268616
0.002699536
0.002696311
0.002678645
0.002649937
0.002615658
0.002580565
0.002551584
0.002534197
0.002528563
0.002527648
0.002527155
0.002527228
0.002526429
0.002526986
0.002532255
0.002547242
0.002556409
0.002558893
0.002561373
0.002564154
0.002564661
0.002564559
0.002567151
0.002574111
0.002586232
0.002602419
0.002619303
0.002633882
0.002644537
0.002649984
0.00264637
0.002625148
0.00257748
0.002471929
0.002248607
0.002224435
0.002432068
0.002552461
0.002622607
0.002669488
0.002694882
0.002704006
0.002698388
0.002679052
0.002649888
0.002615159
0.002579528
0.002548946
0.002526716
0.00251133
0.002498155
0.002489525
0.002484809
0.002484013
0.002491313
0.002510731
0.002524067
0.00253321
0.002543607
0.002553897
0.002560648
0.002565549
0.002571627
0.002580523
0.002592964
0.002607757
0.002622019
0.002633318
0.00264113
0.002644864
0.002641053
0.002620568
0.002572987
0.002466074
0.002252079
0.002164751
0.002386478
0.002515381
0.002589912
0.002643266
0.00267835
0.00269875
0.002704875
0.002696297
0.002674564
0.002643377
0.002606212
0.002567629
0.002531725
0.002500188
0.002472703
0.002451352
0.002439995
0.002436866
0.00244725
0.002468471
0.002485222
0.002499741
0.002517039
0.002533489
0.002546324
0.002556913
0.002567315
0.002578983
0.002592426
0.00260636
0.002618312
0.002626628
0.002631549
0.002633314
0.002628709
0.002608114
0.002560079
0.002452054
0.002248064
0.002106158
0.002346317
0.002481282
0.002556627
0.002612313
0.002653882
0.002683895
0.002700928
0.002702619
0.002689384
0.002663608
0.002628228
0.00258622
0.002541045
0.002495612
0.002453948
0.002422396
0.002403382
0.002397161
0.002410049
0.002429488
0.002445219
0.002461123
0.002483
0.002504533
0.002522985
0.002538979
0.00255384
0.002568333
0.002582699
0.002595824
0.002605496
0.002610282
0.002610801
0.002607881
0.00259846
0.002573916
0.002522741
0.002411785
0.00221906
0.002071876
0.002317523
0.00245528
0.00252953
0.002585166
0.002629843
0.002666595
0.002691974
0.00270173
0.0026957
0.002675182
0.002642435
0.002599823
0.002549877
0.002497283
0.002449158
0.002411426
0.002387384
0.002381389
0.002393212
0.00240694
0.002417537
0.002430646
0.002451663
0.002474648
0.002496457
0.002515965
0.002533377
0.002549205
0.002563721
0.002575663
0.002582425
0.002582049
0.002575125
0.0025625
0.00254205
0.002507717
0.002448474
0.002334335
0.002162115
0.002069754
0.002299144
0.002438875
0.00251463
0.002569454
0.002614399
0.002653629
0.002682856
0.002696989
0.002695136
0.002677923
0.00264663
0.002603691
0.002552848
0.0025008
0.002452182
0.002413813
0.002391342
0.002386969
0.002393936
0.002404233
0.002412217
0.002420308
0.002433464
0.002450832
0.002470777
0.002490578
0.002508397
0.002523809
0.002537107
0.002546903
0.002549764
0.002542675
0.002525266
0.002498597
0.002465177
0.002422945
0.002364405
0.002255222
0.002095331
0.002109345
0.002302688
0.002435454
0.002512973
0.002566607
0.002610266
0.002648366
0.002676901
0.002691366
0.002690151
0.002673416
0.002642301
0.002598972
0.002548663
0.002497651
0.002452201
0.002418157
0.002401193
0.002396329
0.002399753
0.002409244
0.002418545
0.002423568
0.00242827
0.002437339
0.002450114
0.002464523
0.002479155
0.002492448
0.002503345
0.002509751
0.002508006
0.002494549
0.002468463
0.002431686
0.002390601
0.002351519
0.002303642
0.002204844
0.002029172
0.00216553
0.002316587
0.002431549
0.002509355
0.002565014
0.002610265
0.002647615
0.002674113
0.002686665
0.002683888
0.002665857
0.002633906
0.002590705
0.002541068
0.002491914
0.002450648
0.002423074
0.002407317
0.002401119
0.002404254
0.002416027
0.002427878
0.002433411
0.002437658
0.002442968
0.002447971
0.002451625
0.00245642
0.002462309
0.002467138
0.002467619
0.002460209
0.002442272
0.002414473
0.002378226
0.002340344
0.00230327
0.002257006
0.002168409
0.001991939
0.002187892
0.002310368
0.002407923
0.002488881
0.002552907
0.002604354
0.002643824
0.002669723
0.002680628
0.002676096
0.00265662
0.002623967
0.00258146
0.002534465
0.002489927
0.002454129
0.002428584
0.002410579
0.002402133
0.002407114
0.002423761
0.002441627
0.00245496
0.002463449
0.00246849
0.002468355
0.002463352
0.002455903
0.002448815
0.002440888
0.002429372
0.002412365
0.00239104
0.00236855
0.002340335
0.002304601
0.002254397
0.002199091
0.002127915
0.001974297
0.002178128
0.002275898
0.002359406
0.00244582
0.00252294
0.002583628
0.002627998
0.002655582
0.002666472
0.002661438
0.002641616
0.00260931
0.002568369
0.002524752
0.002485299
0.002454343
0.002430142
0.002408682
0.002398389
0.002408803
0.002434838
0.00246288
0.002487232
0.002505844
0.002516902
0.002517464
0.002508938
0.002492126
0.002470981
0.002444139
0.002411665
0.002375765
0.002347011
0.002330572
0.002311608
0.002275541
0.002211313
0.002144703
0.002078274
0.001940799
0.002160363
0.002229526
0.00229662
0.002385266
0.002474475
0.002542769
0.002592463
0.00262288
0.002635294
0.002631561
0.002613398
0.002583669
0.002545881
0.002505691
0.002469477
0.002440402
0.002416244
0.002393966
0.00238664
0.002406383
0.002440712
0.002473842
0.002505149
0.002531037
0.002548643
0.002554109
0.002551761
0.002538264
0.002511801
0.002472164
0.002419569
0.002358443
0.002313184
0.002295841
0.002280143
0.002242126
0.002166023
0.002101838
0.002037807
0.001908778
0.002135085
0.002180175
0.002226622
0.002312096
0.002406041
0.002476577
0.002528668
0.002560732
0.00257492
0.002574173
0.002560156
0.002535402
0.002502716
0.002466982
0.002433589
0.002405223
0.002381858
0.002366438
0.002366507
0.002389804
0.002422212
0.002453263
0.002485723
0.002517166
0.002541513
0.002553424
0.002561079
0.00255759
0.002535486
0.002493935
0.00243115
0.00235113
0.002292576
0.002269241
0.002249432
0.002201389
0.00210917
0.002076439
0.002029134
0.001931474
0.002084899
0.00212473
0.002146718
0.002229482
0.002318131
0.002382407
0.002430787
0.002460841
0.002475194
0.002478342
0.002470539
0.002453283
0.002428196
0.00239947
0.002371539
0.002346481
0.002329293
0.002322377
0.002326624
0.002342907
0.002366417
0.002391462
0.002420769
0.002454466
0.00248342
0.002501584
0.00252227
0.002532003
0.002518733
0.002481605
0.002419879
0.002335009
0.00227662
0.002255441
0.002235122
0.00218197
0.002090868
0.002047143
0.002006601
0.001915096
0.001988576
0.002046412
0.002047717
0.002114628
0.002181226
0.002226652
0.002263706
0.002287287
0.002299016
0.002305518
0.002304511
0.00229562
0.002278764
0.00225871
0.002240677
0.002231392
0.002236319
0.002245091
0.002249725
0.002253108
0.002260019
0.002274749
0.002296352
0.002327478
0.002352655
0.002384089
0.002423659
0.00244382
0.002440318
0.002409286
0.002358435
0.002284484
0.002237351
0.002222951
0.002205907
0.002154486
0.002063377
0.001983468
0.001923042
0.001809297
0.001828279
0.001906947
0.001874052
0.001927383
0.001965053
0.001988464
0.002012691
0.002029047
0.002034475
0.002043013
0.002047398
0.002046358
0.002039881
0.002034818
0.002035523
0.002045211
0.002065304
0.002083041
0.002083873
0.002071655
0.002054806
0.002059461
0.002081217
0.002113253
0.002138366
0.002194565
0.002240244
0.002250811
0.002242923
0.002205995
0.002163776
0.002106049
0.002076477
0.002072834
0.002065148
0.002025655
0.001947871
0.001864743
0.001770546
0.001609317
0.002404228
0.00232606
0.002336733
0.002206903
0.00218803
0.002117501
0.002131316
0.00218905
0.002256527
0.002259845
0.002278046
0.002293377
0.002261328
0.002221092
0.002205344
0.002211737
0.002221607
0.002228144
0.002243727
0.002261122
0.002281639
0.002304873
0.002329258
0.002346545
0.002370276
0.002400547
0.002442188
0.002450457
0.002434314
0.002429458
0.002424656
0.002423193
0.00241986
0.002414227
0.002390819
0.002317545
0.002227944
0.002170345
0.002106465
0.002026221
0.002331299
0.003588436
0.004446846
0.004898674
0.005064047
0.005298568
0.005460844
0.005462418
0.00557842
0.005827093
0.006062442
0.00623078
0.006396957
0.006562443
0.006668933
0.006737495
0.006796517
0.006833724
0.006866962
0.006877149
0.006813804
0.00663643
0.006271765
0.005756072
0.005095766
0.004472246
0.004143841
0.004253488
0.004401562
0.004443606
0.004534332
0.004782351
0.00512807
0.005347286
0.005403076
0.005414479
0.005342301
0.005043484
0.004098186
0.002091133
0.002312491
0.004316527
0.006100358
0.007083179
0.007584943
0.007997381
0.008306228
0.00858918
0.008912833
0.009261483
0.00956725
0.00981815
0.01002812
0.01019657
0.01034517
0.01045554
0.0104988
0.01048009
0.0104277
0.01033938
0.01016659
0.009844683
0.009265496
0.008386556
0.007281103
0.006266274
0.005705475
0.005850599
0.00609212
0.00620371
0.006416475
0.006881191
0.00750002
0.00794773
0.008074987
0.007960877
0.007580848
0.006745941
0.005060203
0.002131693
0.002285567
0.004874289
0.007130918
0.008379213
0.009082442
0.009586669
0.009961098
0.01029213
0.01062892
0.01098485
0.01134469
0.0116677
0.01193336
0.01213979
0.01228449
0.01235377
0.01233368
0.01223849
0.01209852
0.01192725
0.01168958
0.01130941
0.01069813
0.00978864
0.008770869
0.007931045
0.007497802
0.007638591
0.007834907
0.007903399
0.008049899
0.008406841
0.008958629
0.00942931
0.009613216
0.009522811
0.009059123
0.007942041
0.005743834
0.002217664
0.002301657
0.005316739
0.007741341
0.00907658
0.009875408
0.01038284
0.01072839
0.01102418
0.01134602
0.01172651
0.0121482
0.01253702
0.01283438
0.01303275
0.01313419
0.01313103
0.01301613
0.01279896
0.01252899
0.01226139
0.01201527
0.01178073
0.01135627
0.01066413
0.009989098
0.009557634
0.009508161
0.009579982
0.00960885
0.009562998
0.009553004
0.009717935
0.01005557
0.01038022
0.0105194
0.01042276
0.009911196
0.008612747
0.006053453
0.002184496
0.002334354
0.005504014
0.007890353
0.009292027
0.01018231
0.01065178
0.0109454
0.01124771
0.01162054
0.01207106
0.01255456
0.01297817
0.01326963
0.01342074
0.013437
0.01330838
0.01303912
0.01265653
0.01229445
0.01202571
0.01195793
0.01198691
0.01178678
0.01138175
0.01112461
0.01122568
0.01141621
0.01136704
0.01125447
0.01112377
0.01098987
0.01092655
0.01096888
0.01104455
0.01106536
0.01091241
0.01034653
0.008933601
0.006138709
0.002177651
0.002359955
0.005366691
0.007642354
0.009096214
0.01006897
0.0105618
0.01091752
0.01134565
0.01184379
0.01238067
0.01289541
0.01330697
0.01354608
0.01360207
0.01348803
0.01322551
0.01281844
0.01237231
0.01203761
0.01195042
0.0121074
0.01230107
0.01226332
0.01225337
0.01253512
0.01292328
0.01300276
0.01280094
0.01260428
0.01243876
0.01225034
0.01202305
0.01177382
0.01154674
0.01138921
0.01116059
0.01054332
0.009091176
0.006219386
0.002228285
0.002377146
0.005142946
0.00729807
0.008724073
0.009657575
0.01032893
0.01089698
0.01152442
0.01216708
0.01277338
0.01328956
0.01365907
0.01382727
0.01377564
0.01354142
0.0131644
0.01270239
0.01229542
0.01212874
0.0122532
0.01255671
0.01280708
0.01301226
0.01341559
0.01396556
0.01414213
0.01400768
0.01378024
0.01357131
0.01338343
0.0131607
0.01285636
0.0124375
0.01193728
0.01155883
0.01124091
0.0105842
0.009107911
0.006195745
0.002209731
0.00237939
0.004894357
0.006860083
0.008188301
0.009173451
0.01007788
0.01096351
0.01181294
0.01259243
0.01325928
0.01377504
0.01410032
0.01419153
0.014048
0.01373853
0.01334679
0.01294495
0.01266301
0.01262984
0.01282429
0.01311834
0.01344556
0.01392682
0.0144144
0.01470377
0.01470782
0.01458548
0.01440587
0.01422411
0.01404325
0.01381608
0.01348435
0.01299655
0.01234938
0.01174109
0.0112681
0.01057207
0.009066076
0.006088253
0.002238325
0.002367788
0.00460421
0.006307447
0.007572307
0.008726152
0.00989668
0.01102956
0.01206098
0.0129501
0.01367243
0.01420668
0.01453564
0.01465152
0.01458047
0.01436826
0.01405652
0.01369665
0.01341007
0.01332442
0.0134278
0.013654
0.01401947
0.01449119
0.01489397
0.01499869
0.01498058
0.01489681
0.0147765
0.01464304
0.01448996
0.01427778
0.01395669
0.01347341
0.01279631
0.01203428
0.0113593
0.01055835
0.009028302
0.006053801
0.002247788
0.002361163
0.004274711
0.005715111
0.006992557
0.008356929
0.009773776
0.01110433
0.01228267
0.01328509
0.01409617
0.01470329
0.01511232
0.01534194
0.01540747
0.01531488
0.0150585
0.01467039
0.01427744
0.01401566
0.01392541
0.01406353
0.01439318
0.01477784
0.01507529
0.01510369
0.01508023
0.01503037
0.01496324
0.01488112
0.01476809
0.01458691
0.01428958
0.0138296
0.01317868
0.01237285
0.01152556
0.01056693
0.008993734
0.006040338
0.002265347
0.002388519
0.003936609
0.005181013
0.006519009
0.008062668
0.00967345
0.01118091
0.01251315
0.01364031
0.01454243
0.01522467
0.01571858
0.01604305
0.01619743
0.01617196
0.01595014
0.01555788
0.01509167
0.01466999
0.01444883
0.01449463
0.0146824
0.01490497
0.01509052
0.01508941
0.0150594
0.01503467
0.01501135
0.01497668
0.01490715
0.01476392
0.01449792
0.01406513
0.01344192
0.01263558
0.01168926
0.01058187
0.008947898
0.006034707
0.002291063
0.002411205
0.003717
0.004797286
0.006162998
0.00782187
0.009581667
0.01125079
0.0127292
0.01396307
0.01493485
0.01568983
0.01626312
0.0166608
0.01687715
0.0168998
0.01673095
0.01640146
0.01594907
0.01546297
0.0151117
0.01494675
0.01490282
0.01492309
0.01497769
0.01498787
0.01495329
0.01494713
0.01496107
0.01496934
0.01494256
0.01483957
0.01460802
0.01420166
0.01359655
0.01279065
0.01179235
0.01058409
0.008894545
0.006032579
0.002310871
0.002417839
0.003725768
0.004750587
0.006085906
0.007768882
0.009617188
0.01140719
0.01299447
0.01430273
0.01534593
0.01617655
0.01681936
0.01727756
0.01754365
0.01760675
0.01747592
0.01717812
0.01672962
0.0161855
0.01565936
0.01525256
0.01499838
0.0148606
0.01479859
0.01477303
0.01477786
0.01480038
0.0148497
0.01489865
0.01491078
0.01484459
0.0146449
0.01426136
0.01366737
0.01285491
0.01182097
0.010546
0.008820192
0.006018769
0.002332438
0.002425442
0.003907072
0.005078418
0.006467956
0.008166627
0.010029
0.01184402
0.01344656
0.01476014
0.01582446
0.01667885
0.01734085
0.01780257
0.01805477
0.01809741
0.01794871
0.01764247
0.01719502
0.01662144
0.01598312
0.01539221
0.01497257
0.01473487
0.0146005
0.01451476
0.01450228
0.01458806
0.01470199
0.01479382
0.01483938
0.01480278
0.01462864
0.01426333
0.01367732
0.01285498
0.01179313
0.01047429
0.008726796
0.005988993
0.002353382
0.002424295
0.004224594
0.005630763
0.007118143
0.008848515
0.01068212
0.01243235
0.01394825
0.01519678
0.01621294
0.01703029
0.01765149
0.01806401
0.01824433
0.01821401
0.01803372
0.01773995
0.01734888
0.01680092
0.01612623
0.01543662
0.01489563
0.01457736
0.01439765
0.014269
0.0142166
0.01430046
0.01449896
0.01467411
0.01475014
0.01473442
0.01457786
0.01422616
0.01364576
0.01281796
0.01173801
0.01038577
0.008620317
0.005929842
0.002371615
0.002427822
0.004629123
0.006322312
0.007866272
0.009575192
0.01133718
0.01298022
0.01437234
0.01551758
0.01644867
0.01718662
0.01772986
0.01806029
0.01817182
0.01811435
0.01793012
0.01765179
0.01729855
0.01680289
0.01615565
0.01544715
0.01484094
0.01444574
0.01422191
0.01407644
0.01400255
0.01405936
0.01427311
0.01454456
0.01466354
0.01466006
0.01451188
0.01416652
0.01358741
0.0127578
0.01166959
0.01029913
0.008501206
0.005843177
0.002384297
0.002433073
0.005088178
0.007072586
0.008683042
0.01030172
0.01194356
0.0134642
0.01474048
0.01577498
0.01660083
0.01723263
0.01766943
0.01790667
0.01796545
0.01788282
0.01771117
0.01746178
0.01713643
0.01669404
0.0161292
0.01548403
0.01487726
0.01441833
0.0141322
0.01396843
0.0138953
0.01393751
0.01413161
0.01442871
0.01460118
0.01460028
0.01445018
0.01410292
0.01351955
0.01268378
0.0115945
0.01021361
0.008376354
0.005745099
0.002392825
0.002438534
0.005565744
0.00783398
0.009512549
0.01101376
0.01248458
0.01387405
0.01505036
0.01598685
0.01670363
0.01721158
0.01752755
0.01767153
0.01765505
0.01751806
0.01734639
0.01714143
0.01687112
0.01651631
0.01607616
0.01556085
0.01502651
0.01455595
0.01421168
0.01400423
0.01392374
0.01396556
0.01413208
0.01440099
0.01458516
0.0145726
0.01441031
0.01405397
0.01346233
0.01261842
0.0115289
0.01014031
0.008258466
0.005649947
0.002397141
0.002443873
0.006076684
0.008588245
0.01026649
0.01170011
0.01296089
0.01419002
0.01526972
0.01612274
0.01672425
0.01711928
0.01734478
0.01742056
0.01735571
0.01716825
0.01693635
0.01671566
0.01650923
0.01627553
0.01598427
0.01562958
0.01523123
0.01482832
0.01447863
0.01423272
0.01412075
0.01414935
0.0142841
0.01448903
0.01462327
0.01458718
0.01440468
0.01403436
0.01343399
0.01258492
0.01148985
0.01009185
0.008164648
0.005564853
0.002396492
0.002448564
0.006548689
0.009256686
0.01093978
0.01225752
0.01338058
0.014398
0.0153393
0.01610139
0.01662852
0.01695466
0.01711958
0.01715129
0.01706214
0.01685823
0.01656728
0.01627466
0.01607555
0.01596869
0.01584314
0.01564769
0.01540016
0.0151237
0.01484135
0.01460331
0.01445748
0.01444595
0.01456011
0.01467998
0.01471818
0.01464229
0.01443604
0.01405188
0.01344863
0.0126028
0.01150086
0.01008856
0.008115589
0.005507393
0.002384881
0.002449148
0.006912027
0.00976559
0.01145783
0.01270927
0.01369221
0.01452721
0.01524379
0.01587897
0.01638035
0.01669144
0.01683803
0.01684928
0.01674552
0.01654163
0.01624273
0.01589833
0.0156587
0.0156308
0.01566172
0.01561884
0.01547072
0.01527546
0.01509881
0.01495373
0.0148409
0.01479434
0.01483004
0.01485828
0.01483066
0.01472337
0.01449789
0.01410829
0.01351535
0.01268733
0.01158878
0.0101586
0.008140755
0.005478285
0.00236335
0.002442667
0.007132218
0.01009893
0.01181928
0.01303628
0.01394042
0.01460757
0.01509057
0.01549891
0.01590307
0.01624554
0.01644101
0.01648032
0.01637943