/*--------------------------------*- C++ -*----------------------------------*\
| =========                 |                                                 |
| \\      /  F ield         | OpenFOAM: The Open Source CFD Toolbox           |
|  \\    /   O peration     | Version:  2212                                  |
|   \\  /    A nd           | Website:  www.openfoam.com                      |
|    \\/     M anipulation  |                                                 |
\*---------------------------------------------------------------------------*/
FoamFile
{
    version     2.0;
    format      ascii;
    arch        "LSB;label=32;scalar=64";
    class       volScalarField;
    location    "1000";
    object      epsilon;
}
// * * * * * * * * * * * * * * * * * * * * * * * * * * * * * * * * * * * * * //

dimensions      [0 2 -3 0 0 0 0];

internalField   nonuniform List<scalar> 
96000
(
6.968418e-06
5.428184e-06
4.714647e-06
3.943328e-06
3.672837e-06
3.532945e-06
3.773811e-06
3.997184e-06
4.293599e-06
4.415481e-06
4.60541e-06
4.666964e-06
4.505697e-06
4.384619e-06
4.376158e-06
4.421246e-06
4.484745e-06
4.640761e-06
5.003099e-06
5.474591e-06
6.001439e-06
6.534064e-06
7.057505e-06
7.32658e-06
7.079644e-06
6.517909e-06
6.121328e-06
6.3645e-06
6.759356e-06
7.308564e-06
7.855306e-06
8.202673e-06
8.068031e-06
7.474485e-06
6.726839e-06
5.937997e-06
5.304956e-06
5.163609e-06
4.814967e-06
4.001343e-06
5.86814e-06
5.751818e-06
5.83251e-06
5.536233e-06
5.330543e-06
5.151755e-06
5.19146e-06
5.318098e-06
5.594381e-06
5.831968e-06
6.043308e-06
6.115239e-06
6.028094e-06
5.992211e-06
6.122178e-06
6.354506e-06
6.593452e-06
6.835052e-06
7.154377e-06
7.54484e-06
7.963523e-06
8.372881e-06
8.746617e-06
8.98994e-06
8.850609e-06
8.214672e-06
7.507825e-06
7.761196e-06
8.516281e-06
9.2332e-06
9.773887e-06
9.983137e-06
9.640473e-06
8.911782e-06
8.080003e-06
7.217743e-06
6.469578e-06
6.048578e-06
5.555647e-06
4.587376e-06
5.958192e-06
6.558716e-06
7.137575e-06
7.119989e-06
7.007677e-06
6.791615e-06
6.720475e-06
6.706125e-06
7.011079e-06
7.293019e-06
7.503706e-06
7.596977e-06
7.589136e-06
7.656843e-06
7.906552e-06
8.228745e-06
8.540174e-06
8.810869e-06
9.067716e-06
9.309765e-06
9.514081e-06
9.657706e-06
9.718451e-06
9.630577e-06
9.278536e-06
8.609105e-06
8.03432e-06
8.414982e-06
9.132453e-06
9.725055e-06
1.018825e-05
1.045459e-05
1.034132e-05
9.849575e-06
9.129541e-06
8.282853e-06
7.407962e-06
6.635569e-06
5.760814e-06
4.587675e-06
6.605646e-06
7.636317e-06
8.555052e-06
8.758553e-06
8.766944e-06
8.591789e-06
8.561507e-06
8.600738e-06
8.723729e-06
8.867721e-06
9.039769e-06
9.166053e-06
9.219652e-06
9.332359e-06
9.608193e-06
9.939958e-06
1.019821e-05
1.034742e-05
1.040522e-05
1.036782e-05
1.023762e-05
1.003487e-05
9.788188e-06
9.485558e-06
9.083397e-06
8.587283e-06
8.318392e-06
8.670436e-06
9.179592e-06
9.557546e-06
9.864873e-06
1.01313e-05
1.023413e-05
1.005714e-05
9.602703e-06
8.946565e-06
8.139538e-06
7.231142e-06
6.188517e-06
4.92405e-06
7.336224e-06
8.809309e-06
9.92265e-06
1.033747e-05
1.04715e-05
1.038645e-05
1.038195e-05
1.037506e-05
1.039361e-05
1.047525e-05
1.062141e-05
1.075948e-05
1.084204e-05
1.093497e-05
1.1115e-05
1.128564e-05
1.133945e-05
1.124587e-05
1.10109e-05
1.064007e-05
1.01677e-05
9.661431e-06
9.251689e-06
8.949329e-06
8.677812e-06
8.524018e-06
8.524237e-06
8.734494e-06
8.996078e-06
9.151078e-06
9.266596e-06
9.430112e-06
9.623555e-06
9.718837e-06
9.577889e-06
9.160058e-06
8.474008e-06
7.526725e-06
6.286719e-06
4.829256e-06
7.805603e-06
9.844374e-06
1.105735e-05
1.16287e-05
1.185258e-05
1.1849e-05
1.186118e-05
1.184216e-05
1.183902e-05
1.189696e-05
1.201157e-05
1.210811e-05
1.213056e-05
1.210242e-05
1.208375e-05
1.201702e-05
1.182751e-05
1.148375e-05
1.097927e-05
1.03493e-05
9.656255e-06
9.015548e-06
8.613748e-06
8.393007e-06
8.367359e-06
8.528548e-06
8.646065e-06
8.6885e-06
8.7412e-06
8.736136e-06
8.712078e-06
8.760304e-06
8.932188e-06
9.175837e-06
9.303084e-06
9.137604e-06
8.609107e-06
7.711289e-06
6.386388e-06
4.85434e-06
7.939784e-06
1.050351e-05
1.182355e-05
1.249291e-05
1.276998e-05
1.282245e-05
1.283471e-05
1.280592e-05
1.279639e-05
1.2829e-05
1.287935e-05
1.287809e-05
1.277892e-05
1.258345e-05
1.234728e-05
1.205732e-05
1.167615e-05
1.1163e-05
1.051914e-05
9.799814e-06
9.095694e-06
8.523404e-06
8.183684e-06
8.075594e-06
8.280797e-06
8.562987e-06
8.658317e-06
8.59933e-06
8.534243e-06
8.453232e-06
8.34658e-06
8.283653e-06
8.358299e-06
8.628922e-06
8.931017e-06
9.011089e-06
8.70682e-06
7.967898e-06
6.728537e-06
5.174072e-06
7.858515e-06
1.080722e-05
1.220484e-05
1.290514e-05
1.319346e-05
1.323818e-05
1.321941e-05
1.317582e-05
1.31496e-05
1.31297e-05
1.30782e-05
1.294249e-05
1.269723e-05
1.235334e-05
1.195936e-05
1.153472e-05
1.106486e-05
1.051346e-05
9.888626e-06
9.265613e-06
8.726466e-06
8.331334e-06
8.101387e-06
8.136577e-06
8.398916e-06
8.630564e-06
8.650163e-06
8.535982e-06
8.433789e-06
8.347003e-06
8.220122e-06
8.070838e-06
8.005744e-06
8.184402e-06
8.526088e-06
8.751353e-06
8.625896e-06
8.018311e-06
6.809404e-06
5.18407e-06
7.661059e-06
1.080748e-05
1.222431e-05
1.289172e-05
1.312908e-05
1.313785e-05
1.309187e-05
1.303607e-05
1.297297e-05
1.287144e-05
1.270007e-05
1.24346e-05
1.208202e-05
1.166262e-05
1.120688e-05
1.073663e-05
1.026411e-05
9.781853e-06
9.313411e-06
8.916645e-06
8.613319e-06
8.392821e-06
8.307406e-06
8.4604e-06
8.681e-06
8.751471e-06
8.671008e-06
8.543738e-06
8.463707e-06
8.410065e-06
8.299865e-06
8.109495e-06
7.919617e-06
7.946642e-06
8.234959e-06
8.519923e-06
8.52217e-06
8.047275e-06
6.926431e-06
5.286329e-06
7.345785e-06
1.052342e-05
1.189701e-05
1.24869e-05
1.267016e-05
1.268777e-05
1.267359e-05
1.262729e-05
1.252787e-05
1.235001e-05
1.208253e-05
1.172877e-05
1.131231e-05
1.085565e-05
1.039539e-05
9.95629e-06
9.559787e-06
9.219941e-06
8.956211e-06
8.782732e-06
8.677587e-06
8.635708e-06
8.700664e-06
8.850541e-06
8.984161e-06
8.961331e-06
8.841738e-06
8.716485e-06
8.653124e-06
8.618496e-06
8.526411e-06
8.338662e-06
8.103395e-06
7.990153e-06
8.141028e-06
8.39481e-06
8.453795e-06
8.053958e-06
6.968902e-06
5.259923e-06
6.873146e-06
9.921259e-06
1.122373e-05
1.176514e-05
1.199139e-05
1.21067e-05
1.217247e-05
1.21542e-05
1.203814e-05
1.182347e-05
1.152267e-05
1.114645e-05
1.071539e-05
1.026675e-05
9.841658e-06
9.47147e-06
9.172735e-06
8.953178e-06
8.832166e-06
8.819404e-06
8.869462e-06
8.946797e-06
9.04954e-06
9.161603e-06
9.24513e-06
9.207482e-06
9.101485e-06
8.996469e-06
8.936945e-06
8.900618e-06
8.831127e-06
8.700348e-06
8.517184e-06
8.35756e-06
8.355408e-06
8.505794e-06
8.54764e-06
8.168845e-06
7.070713e-06
5.236047e-06
6.344774e-06
9.035562e-06
1.022318e-05
1.082977e-05
1.123616e-05
1.15219e-05
1.169456e-05
1.172967e-05
1.164229e-05
1.145651e-05
1.119046e-05
1.084577e-05
1.045129e-05
1.004607e-05
9.668111e-06
9.352486e-06
9.118135e-06
8.968579e-06
8.91898e-06
8.958559e-06
9.047438e-06
9.160518e-06
9.267526e-06
9.35926e-06
9.431086e-06
9.420904e-06
9.352877e-06
9.278893e-06
9.232834e-06
9.208059e-06
9.176437e-06
9.11288e-06
9.004161e-06
8.870342e-06
8.789297e-06
8.815102e-06
8.78101e-06
8.383829e-06
7.276527e-06
5.364001e-06
6.285987e-06
8.209505e-06
9.137557e-06
9.884102e-06
1.051456e-05
1.098278e-05
1.12751e-05
1.139449e-05
1.138113e-05
1.127133e-05
1.105901e-05
1.076441e-05
1.042013e-05
1.006623e-05
9.747266e-06
9.499811e-06
9.317937e-06
9.180976e-06
9.10775e-06
9.100957e-06
9.16435e-06
9.273408e-06
9.384729e-06
9.473571e-06
9.538375e-06
9.566959e-06
9.54576e-06
9.510277e-06
9.491628e-06
9.490853e-06
9.497459e-06
9.489816e-06
9.446659e-06
9.365282e-06
9.276673e-06
9.22462e-06
9.104042e-06
8.641107e-06
7.479316e-06
5.4993e-06
6.742297e-06
8.504493e-06
8.93179e-06
9.45492e-06
1.00852e-05
1.063061e-05
1.100102e-05
1.119817e-05
1.126317e-05
1.121034e-05
1.105305e-05
1.08222e-05
1.054186e-05
1.024152e-05
9.962338e-06
9.744873e-06
9.578543e-06
9.430243e-06
9.303688e-06
9.232183e-06
9.247338e-06
9.331093e-06
9.437657e-06
9.527143e-06
9.591896e-06
9.631671e-06
9.652885e-06
9.662656e-06
9.679868e-06
9.709972e-06
9.750003e-06
9.7853e-06
9.792525e-06
9.762029e-06
9.701284e-06
9.626428e-06
9.457254e-06
8.944116e-06
7.747085e-06
5.694573e-06
7.388909e-06
9.37326e-06
9.683575e-06
9.970355e-06
1.035492e-05
1.073108e-05
1.101729e-05
1.11917e-05
1.125941e-05
1.121577e-05
1.108476e-05
1.088643e-05
1.064342e-05
1.037918e-05
1.013196e-05
9.93524e-06
9.783684e-06
9.637316e-06
9.484359e-06
9.359963e-06
9.322143e-06
9.371549e-06
9.458495e-06
9.53824e-06
9.596396e-06
9.640209e-06
9.670889e-06
9.713135e-06
9.76885e-06
9.833324e-06
9.905806e-06
9.979688e-06
1.003119e-05
1.004931e-05
1.00303e-05
9.96375e-06
9.775444e-06
9.243684e-06
8.041274e-06
5.921987e-06
7.874732e-06
1.014684e-05
1.045044e-05
1.055106e-05
1.07105e-05
1.09112e-05
1.108093e-05
1.118693e-05
1.120098e-05
1.113186e-05
1.099668e-05
1.081464e-05
1.060197e-05
1.038967e-05
1.020173e-05
1.005102e-05
9.926326e-06
9.786707e-06
9.637071e-06
9.493929e-06
9.412598e-06
9.414396e-06
9.463306e-06
9.519713e-06
9.566646e-06
9.604557e-06
9.629863e-06
9.667691e-06
9.744119e-06
9.847568e-06
9.955738e-06
1.00687e-05
1.016543e-05
1.023586e-05
1.026584e-05
1.02239e-05
1.004082e-05
9.516197e-06
8.335614e-06
6.167853e-06
8.126989e-06
1.051618e-05
1.084766e-05
1.08384e-05
1.084595e-05
1.092031e-05
1.099823e-05
1.103834e-05
1.100068e-05
1.089823e-05
1.075386e-05
1.058783e-05
1.041988e-05
1.026847e-05
1.014191e-05
1.005255e-05
9.98214e-06
9.882909e-06
9.756637e-06
9.619903e-06
9.52091e-06
9.471072e-06
9.46305e-06
9.47425e-06
9.491276e-06
9.510856e-06
9.530599e-06
9.554338e-06
9.621003e-06
9.759391e-06
9.907848e-06
1.006126e-05
1.020812e-05
1.033816e-05
1.04177e-05
1.040502e-05
1.023548e-05
9.730776e-06
8.582444e-06
6.371011e-06
8.166996e-06
1.052402e-05
1.089126e-05
1.082198e-05
1.072384e-05
1.070822e-05
1.072519e-05
1.072644e-05
1.06685e-05
1.055357e-05
1.041488e-05
1.028111e-05
1.01629e-05
1.006297e-05
1.000244e-05
9.977084e-06
9.96361e-06
9.919724e-06
9.834045e-06
9.720113e-06
9.623039e-06
9.538738e-06
9.468906e-06
9.420016e-06
9.389798e-06
9.374433e-06
9.371177e-06
9.382958e-06
9.439727e-06
9.597983e-06
9.789416e-06
9.98192e-06
1.018134e-05
1.037045e-05
1.049593e-05
1.05082e-05
1.035412e-05
9.876324e-06
8.767497e-06
6.529714e-06
8.07746e-06
1.033431e-05
1.074421e-05
1.064855e-05
1.046109e-05
1.035609e-05
1.030602e-05
1.028093e-05
1.023869e-05
1.015102e-05
1.005085e-05
9.972515e-06
9.911459e-06
9.867567e-06
9.863806e-06
9.884755e-06
9.908507e-06
9.911007e-06
9.869688e-06
9.789946e-06
9.701271e-06
9.598878e-06
9.484016e-06
9.373369e-06
9.287183e-06
9.228599e-06
9.189243e-06
9.17377e-06
9.230174e-06
9.411141e-06
9.641095e-06
9.868927e-06
1.011771e-05
1.035296e-05
1.051265e-05
1.054264e-05
1.03992e-05
9.944694e-06
8.874308e-06
6.635307e-06
7.940807e-06
1.010268e-05
1.055499e-05
1.046378e-05
1.018835e-05
9.979855e-06
9.828718e-06
9.751917e-06
9.740595e-06
9.732348e-06
9.706824e-06
9.693593e-06
9.695845e-06
9.714034e-06
9.751755e-06
9.792441e-06
9.833721e-06
9.864073e-06
9.861886e-06
9.821988e-06
9.746597e-06
9.635588e-06
9.495416e-06
9.342423e-06
9.202616e-06
9.098006e-06
9.027331e-06
8.989186e-06
9.045442e-06
9.256274e-06
9.510477e-06
9.766417e-06
1.005093e-05
1.030927e-05
1.048485e-05
1.052183e-05
1.038014e-05
9.937292e-06
8.895686e-06
6.664411e-06
7.79324e-06
9.885112e-06
1.040469e-05
1.03551e-05
1.004483e-05
9.716143e-06
9.438482e-06
9.254107e-06
9.22794e-06
9.297853e-06
9.372914e-06
9.441517e-06
9.509826e-06
9.586074e-06
9.663917e-06
9.719263e-06
9.75869e-06
9.796145e-06
9.815168e-06
9.80852e-06
9.757459e-06
9.650547e-06
9.493137e-06
9.318024e-06
9.148738e-06
9.00642e-06
8.913151e-06
8.873844e-06
8.951336e-06
9.174246e-06
9.432045e-06
9.702936e-06
9.998316e-06
1.025561e-05
1.042653e-05
1.045608e-05
1.03021e-05
9.85333e-06
8.818262e-06
6.581748e-06
7.620065e-06
9.661483e-06
1.029364e-05
1.034011e-05
1.007304e-05
9.689157e-06
9.301248e-06
8.989344e-06
8.833948e-06
8.871225e-06
9.02337e-06
9.189712e-06
9.332504e-06
9.456285e-06
9.564205e-06
9.639e-06
9.678221e-06
9.709493e-06
9.736182e-06
9.74266e-06
9.710848e-06
9.63322e-06
9.505743e-06
9.336592e-06
9.151885e-06
8.981299e-06
8.868051e-06
8.849433e-06
8.961118e-06
9.170742e-06
9.419939e-06
9.689936e-06
9.968929e-06
1.020291e-05
1.035078e-05
1.035891e-05
1.01787e-05
9.708172e-06
8.659704e-06
6.420381e-06
7.395924e-06
9.386156e-06
1.016572e-05
1.035995e-05
1.022338e-05
9.894126e-06
9.49896e-06
9.105742e-06
8.789205e-06
8.651206e-06
8.723474e-06
8.928645e-06
9.133299e-06
9.291551e-06
9.414964e-06
9.501434e-06
9.5538e-06
9.589323e-06
9.616858e-06
9.623001e-06
9.607347e-06
9.577566e-06
9.482923e-06
9.349599e-06
9.194598e-06
9.038418e-06
8.927777e-06
8.919096e-06
9.032515e-06
9.228431e-06
9.463455e-06
9.716616e-06
9.959937e-06
1.015572e-05
1.026809e-05
1.024619e-05
1.003031e-05
9.53041e-06
8.462231e-06
6.248239e-06
7.110036e-06
9.040866e-06
9.965742e-06
1.033131e-05
1.038678e-05
1.020629e-05
9.896961e-06
9.513872e-06
9.122816e-06
8.805946e-06
8.662276e-06
8.738676e-06
8.92533e-06
9.086771e-06
9.21666e-06
9.3141e-06
9.37941e-06
9.417344e-06
9.433335e-06
9.44175e-06
9.459117e-06
9.464535e-06
9.403164e-06
9.317063e-06
9.217393e-06
9.119797e-06
9.043916e-06
9.043541e-06
9.151582e-06
9.33093e-06
9.54427e-06
9.765108e-06
9.964061e-06
1.011458e-05
1.018727e-05
1.0134e-05
9.882778e-06
9.357026e-06
8.274695e-06
6.11963e-06
6.772758e-06
8.644174e-06
9.689093e-06
1.021407e-05
1.047053e-05
1.047819e-05
1.030842e-05
1.000108e-05
9.623907e-06
9.240801e-06
8.93105e-06
8.773221e-06
8.797464e-06
8.901756e-06
9.003554e-06
9.087002e-06
9.143532e-06
9.173045e-06
9.178975e-06
9.188834e-06
9.24797e-06
9.285153e-06
9.26644e-06
9.239759e-06
9.213133e-06
9.176824e-06
9.149336e-06
9.180743e-06
9.287726e-06
9.450166e-06
9.638416e-06
9.821222e-06
9.973692e-06
1.007829e-05
1.011406e-05
1.003595e-05
9.763124e-06
9.21907e-06
8.128255e-06
6.053618e-06
6.400956e-06
8.225335e-06
9.360955e-06
1.000859e-05
1.043062e-05
1.061416e-05
1.060661e-05
1.04245e-05
1.011156e-05
9.737513e-06
9.356462e-06
9.045328e-06
8.860806e-06
8.804198e-06
8.803625e-06
8.809367e-06
8.829802e-06
8.841839e-06
8.838776e-06
8.854782e-06
8.947569e-06
9.021255e-06
9.060418e-06
9.107925e-06
9.15788e-06
9.186061e-06
9.21556e-06
9.283465e-06
9.397926e-06
9.550762e-06
9.716895e-06
9.864939e-06
9.975706e-06
1.003998e-05
1.004658e-05
9.956282e-06
9.680655e-06
9.128436e-06
8.027406e-06
6.043161e-06
5.993045e-06
7.80334e-06
9.005696e-06
9.727806e-06
1.026302e-05
1.059437e-05
1.074352e-05
1.070933e-05
1.050301e-05
1.017805e-05
9.789556e-06
9.393598e-06
9.057638e-06
8.815574e-06
8.652232e-06
8.528585e-06
8.456794e-06
8.430637e-06
8.41508e-06
8.438971e-06
8.553937e-06
8.664683e-06
8.767933e-06
8.892115e-06
9.018669e-06
9.116448e-06
9.205583e-06
9.313728e-06
9.448003e-06
9.601345e-06
9.750714e-06
9.871376e-06
9.947601e-06
9.979495e-06
9.966675e-06
9.878398e-06
9.617117e-06
9.078234e-06
7.977649e-06
6.085552e-06
5.547941e-06
7.392384e-06
8.641372e-06
9.391521e-06
9.985146e-06
1.043012e-05
1.072135e-05
1.083335e-05
1.075716e-05
1.051426e-05
1.015706e-05
9.732794e-06
9.298895e-06
8.903454e-06
8.565962e-06
8.290279e-06
8.094784e-06
8.002628e-06
7.963017e-06
7.990913e-06
8.114719e-06
8.255903e-06
8.407265e-06
8.595333e-06
8.783543e-06
8.946919e-06
9.097593e-06
9.25061e-06
9.411429e-06
9.57132e-06
9.710662e-06
9.809128e-06
9.854964e-06
9.855856e-06
9.823329e-06
9.732909e-06
9.478488e-06
8.951529e-06
7.861275e-06
6.075626e-06
5.116259e-06
7.034965e-06
8.305781e-06
9.047034e-06
9.648389e-06
1.016149e-05
1.057059e-05
1.081675e-05
1.086618e-05
1.072376e-05
1.042444e-05
1.001262e-05
9.532253e-06
9.032067e-06
8.548913e-06
8.132301e-06
7.8342e-06
7.668684e-06
7.593203e-06
7.614215e-06
7.726483e-06
7.858933e-06
8.020934e-06
8.246643e-06
8.479082e-06
8.694336e-06
8.895256e-06
9.089615e-06
9.27446e-06
9.440528e-06
9.572431e-06
9.649515e-06
9.659131e-06
9.613614e-06
9.532651e-06
9.397312e-06
9.110286e-06
8.577382e-06
7.502229e-06
5.868291e-06
4.832188e-06
6.773047e-06
8.045578e-06
8.771923e-06
9.359763e-06
9.890925e-06
1.037233e-05
1.071484e-05
1.085953e-05
1.080206e-05
1.056163e-05
1.017604e-05
9.686512e-06
9.135683e-06
8.582174e-06
8.098614e-06
7.742464e-06
7.527947e-06
7.432658e-06
7.441826e-06
7.514893e-06
7.604358e-06
7.737404e-06
7.945289e-06
8.180527e-06
8.418027e-06
8.644817e-06
8.857249e-06
9.050273e-06
9.21569e-06
9.336225e-06
9.383894e-06
9.339783e-06
9.216834e-06
9.036578e-06
8.793223e-06
8.423987e-06
7.852448e-06
6.827657e-06
5.461336e-06
4.793008e-06
6.596861e-06
7.866494e-06
8.612796e-06
9.197056e-06
9.722604e-06
1.021485e-05
1.05906e-05
1.078053e-05
1.076976e-05
1.056812e-05
1.020081e-05
9.711506e-06
9.151137e-06
8.60285e-06
8.11874e-06
7.75499e-06
7.534561e-06
7.441318e-06
7.440679e-06
7.503257e-06
7.576763e-06
7.658386e-06
7.784692e-06
7.957937e-06
8.166802e-06
8.385669e-06
8.592507e-06
8.774787e-06
8.924112e-06
9.020753e-06
9.027458e-06
8.915053e-06
8.688204e-06
8.374777e-06
8.014592e-06
7.608882e-06
7.104283e-06
6.204823e-06
5.016052e-06
5.078464e-06
6.628225e-06
7.828371e-06
8.590286e-06
9.163679e-06
9.667934e-06
1.013182e-05
1.048797e-05
1.067531e-05
1.067037e-05
1.047711e-05
1.011814e-05
9.631772e-06
9.080529e-06
8.548151e-06
8.096539e-06
7.76595e-06
7.575018e-06
7.491719e-06
7.490389e-06
7.564324e-06
7.655771e-06
7.712689e-06
7.766888e-06
7.865293e-06
7.999024e-06
8.15287e-06
8.315086e-06
8.464378e-06
8.579675e-06
8.635065e-06
8.593408e-06
8.422351e-06
8.123556e-06
7.7326e-06
7.327197e-06
6.996806e-06
6.626027e-06
5.854804e-06
4.603149e-06
5.514922e-06
6.769236e-06
7.805215e-06
8.565267e-06
9.152451e-06
9.66018e-06
1.00994e-05
1.042024e-05
1.057791e-05
1.055209e-05
1.034567e-05
9.982804e-06
9.505296e-06
8.973464e-06
8.463944e-06
8.05097e-06
7.768126e-06
7.597532e-06
7.520693e-06
7.534131e-06
7.635803e-06
7.75453e-06
7.828722e-06
7.901735e-06
7.975242e-06
8.035965e-06
8.090523e-06
8.149812e-06
8.208855e-06
8.244794e-06
8.226636e-06
8.123662e-06
7.916382e-06
7.622236e-06
7.258356e-06
6.917499e-06
6.625539e-06
6.279712e-06
5.600104e-06
4.373108e-06
5.697625e-06
6.731748e-06
7.602412e-06
8.386037e-06
9.045386e-06
9.602076e-06
1.004659e-05
1.0347e-05
1.047649e-05
1.042575e-05
1.020232e-05
9.834516e-06
9.369164e-06
8.871067e-06
8.411971e-06
8.047643e-06
7.786846e-06
7.603532e-06
7.515419e-06
7.552051e-06
7.703814e-06
7.882454e-06
8.036554e-06
8.158725e-06
8.24943e-06
8.280434e-06
8.263376e-06
8.214336e-06
8.138887e-06
8.032697e-06
7.88182e-06
7.679212e-06
7.447261e-06
7.215418e-06
6.95162e-06
6.653394e-06
6.259748e-06
5.850578e-06
5.31002e-06
4.244439e-06
5.638789e-06
6.46332e-06
7.190937e-06
8.002718e-06
8.764895e-06
9.396476e-06
9.873692e-06
1.017875e-05
1.029853e-05
1.023747e-05
1.000951e-05
9.648296e-06
9.203796e-06
8.744332e-06
8.338726e-06
8.02393e-06
7.779029e-06
7.565166e-06
7.460314e-06
7.548874e-06
7.796052e-06
8.077259e-06
8.336046e-06
8.55278e-06
8.701807e-06
8.751817e-06
8.718758e-06
8.596924e-06
8.38304e-06
8.089642e-06
7.731823e-06
7.34944e-06
7.056375e-06
6.89277e-06
6.730862e-06
6.44538e-06
5.956463e-06
5.483579e-06
4.98705e-06
4.026008e-06
5.533364e-06
6.12193e-06
6.683115e-06
7.479801e-06
8.308418e-06
8.987992e-06
9.499113e-06
9.821639e-06
9.949844e-06
9.90126e-06
9.693706e-06
9.363473e-06
8.956273e-06
8.537739e-06
8.171656e-06
7.879202e-06
7.636967e-06
7.417471e-06
7.337809e-06
7.515087e-06
7.848778e-06
8.183387e-06
8.515005e-06
8.813278e-06
9.038656e-06
9.142058e-06
9.16819e-06
9.072864e-06
8.810126e-06
8.38453e-06
7.820261e-06
7.19374e-06
6.759694e-06
6.602887e-06
6.483433e-06
6.198436e-06
5.654132e-06
5.256295e-06
4.736115e-06
3.859571e-06
5.375049e-06
5.76822e-06
6.13851e-06
6.858442e-06
7.668411e-06
8.328806e-06
8.836784e-06
9.16147e-06
9.300476e-06
9.285048e-06
9.127364e-06
8.861655e-06
8.52016e-06
8.157323e-06
7.825862e-06
7.549075e-06
7.32488e-06
7.179195e-06
7.171917e-06
7.373773e-06
7.684049e-06
7.992759e-06
8.331615e-06
8.685023e-06
8.982034e-06
9.14856e-06
9.276446e-06
9.288503e-06
9.074153e-06
8.630251e-06
7.95583e-06
7.142023e-06
6.588393e-06
6.389569e-06
6.239945e-06
5.888311e-06
5.261624e-06
5.060892e-06
4.676857e-06
4.031387e-06
5.032219e-06
5.376636e-06
5.557429e-06
6.187465e-06
6.886233e-06
7.444731e-06
7.880422e-06
8.166334e-06
8.299154e-06
8.329271e-06
8.245567e-06
8.071163e-06
7.821924e-06
7.543182e-06
7.276455e-06
7.041691e-06
6.878537e-06
6.809698e-06
6.844673e-06
6.972872e-06
7.183801e-06
7.421811e-06
7.708886e-06
8.063852e-06
8.389838e-06
8.600197e-06
8.846259e-06
9.000223e-06
8.883706e-06
8.497616e-06
7.849808e-06
7.007245e-06
6.463123e-06
6.280621e-06
6.129507e-06
5.733075e-06
5.09303e-06
4.778088e-06
4.464742e-06
3.848325e-06
4.36611e-06
4.788202e-06
4.798025e-06
5.269764e-06
5.74773e-06
6.104022e-06
6.39252e-06
6.59308e-06
6.689559e-06
6.751824e-06
6.73804e-06
6.654499e-06
6.499695e-06
6.321364e-06
6.164974e-06
6.077776e-06
6.098186e-06
6.155016e-06
6.176714e-06
6.175826e-06
6.230492e-06
6.363112e-06
6.551825e-06
6.845251e-06
7.099744e-06
7.403497e-06
7.796162e-06
8.043573e-06
8.033832e-06
7.73546e-06
7.228314e-06
6.548758e-06
6.130344e-06
6.006852e-06
5.876657e-06
5.491035e-06
4.841897e-06
4.296316e-06
3.89839e-06
3.236273e-06
3.364585e-06
3.85229e-06
3.667147e-06
3.971222e-06
4.191999e-06
4.358042e-06
4.504033e-06
4.616449e-06
4.651901e-06
4.719708e-06
4.747287e-06
4.730088e-06
4.666291e-06
4.626529e-06
4.631545e-06
4.669611e-06
4.788582e-06
4.893164e-06
4.880114e-06
4.788549e-06
4.708482e-06
4.755429e-06
4.882205e-06
5.103985e-06
5.302886e-06
5.747796e-06
6.122654e-06
6.232241e-06
6.177462e-06
5.876134e-06
5.520069e-06
5.085882e-06
4.859631e-06
4.842392e-06
4.804607e-06
4.550862e-06
4.055571e-06
3.556885e-06
3.041818e-06
2.283911e-06
7.39674e-06
6.778785e-06
6.953904e-06
5.843972e-06
5.714933e-06
5.172521e-06
5.334543e-06
5.698047e-06
6.142214e-06
6.164077e-06
6.335312e-06
6.508088e-06
6.266354e-06
5.958933e-06
5.880047e-06
5.990938e-06
6.159411e-06
6.278607e-06
6.370341e-06
6.496565e-06
6.640484e-06
6.779673e-06
6.937039e-06
7.074111e-06
7.299874e-06
7.602657e-06
7.999667e-06
8.061388e-06
7.889504e-06
7.839434e-06
7.767883e-06
7.68602e-06
7.527378e-06
7.378047e-06
7.134633e-06
6.569102e-06
5.924186e-06
5.546779e-06
5.101638e-06
4.538394e-06
6.73809e-06
3.929619e-06
3.645246e-06
3.532294e-06
3.596103e-06
3.550207e-06
3.586921e-06
3.6398e-06
3.70781e-06
3.670801e-06
3.678319e-06
3.698224e-06
3.631812e-06
3.570687e-06
3.595325e-06
3.653641e-06
3.715767e-06
3.754715e-06
3.787234e-06
3.828856e-06
3.823371e-06
3.729451e-06
3.594057e-06
3.602045e-06
3.969587e-06
4.546658e-06
4.978976e-06
5.052182e-06
4.839789e-06
4.543342e-06
4.173652e-06
3.808931e-06
3.635291e-06
3.648783e-06
3.590769e-06
3.342647e-06
3.142437e-06
3.067286e-06
3.130516e-06
4.93659e-06
6.704731e-06
3.448814e-06
3.19527e-06
3.248122e-06
3.343728e-06
3.381359e-06
3.406224e-06
3.401132e-06
3.400324e-06
3.416486e-06
3.456476e-06
3.478507e-06
3.448346e-06
3.430695e-06
3.455739e-06
3.492787e-06
3.525779e-06
3.552224e-06
3.575975e-06
3.595378e-06
3.59693e-06
3.574729e-06
3.570329e-06
3.70402e-06
4.082924e-06
4.53069e-06
4.818831e-06
4.837245e-06
4.657554e-06
4.413226e-06
4.088803e-06
3.741728e-06
3.527484e-06
3.456104e-06
3.397984e-06
3.268209e-06
3.089717e-06
2.921838e-06
3.00088e-06
5.227904e-06
6.473739e-06
3.236565e-06
3.187256e-06
3.341313e-06
3.460749e-06
3.517433e-06
3.551858e-06
3.559846e-06
3.574259e-06
3.600598e-06
3.637247e-06
3.663982e-06
3.665611e-06
3.669883e-06
3.691349e-06
3.713774e-06
3.729801e-06
3.742828e-06
3.755527e-06
3.769254e-06
3.787708e-06
3.8219e-06
3.901953e-06
4.087401e-06
4.346596e-06
4.560276e-06
4.671809e-06
4.63825e-06
4.521227e-06
4.367363e-06
4.157032e-06
3.930335e-06
3.748308e-06
3.640566e-06
3.568343e-06
3.471965e-06
3.324918e-06
3.155517e-06
3.25494e-06
5.913683e-06
6.627457e-06
3.191781e-06
3.343904e-06
3.578322e-06
3.711768e-06
3.782108e-06
3.839309e-06
3.881403e-06
3.922453e-06
3.96299e-06
4.004465e-06
4.037208e-06
4.052031e-06
4.060649e-06
4.072647e-06
4.080926e-06
4.084096e-06
4.087248e-06
4.094381e-06
4.107467e-06
4.128191e-06
4.157054e-06
4.236502e-06
4.377239e-06
4.502123e-06
4.568105e-06
4.54132e-06
4.487189e-06
4.418023e-06
4.323179e-06
4.191548e-06
4.031687e-06
3.882209e-06
3.768876e-06
3.686458e-06
3.59413e-06
3.454502e-06
3.275258e-06
3.326929e-06
5.605038e-06
6.935151e-06
3.313564e-06
3.583927e-06
3.855213e-06
3.988143e-06
4.095906e-06
4.204713e-06
4.291196e-06
4.361637e-06
4.421215e-06
4.473572e-06
4.512899e-06
4.533453e-06
4.539201e-06
4.539133e-06
4.53534e-06
4.530375e-06
4.528597e-06
4.522983e-06
4.512748e-06
4.482475e-06
4.445427e-06
4.467736e-06
4.538794e-06
4.584923e-06
4.548568e-06
4.468763e-06
4.418131e-06
4.367882e-06
4.296565e-06
4.200898e-06
4.083919e-06
3.959632e-06
3.848682e-06
3.753069e-06
3.649474e-06
3.501697e-06
3.316335e-06
3.378082e-06
5.543306e-06
7.17275e-06
3.625023e-06
3.904185e-06
4.151345e-06
4.268397e-06
4.423501e-06
4.588849e-06
4.716245e-06
4.816693e-06
4.898338e-06
4.963206e-06
5.006628e-06
5.027003e-06
5.026463e-06
5.015276e-06
4.999246e-06
4.986613e-06
4.968861e-06
4.930407e-06
4.855092e-06
4.747213e-06
4.649552e-06
4.624562e-06
4.624474e-06
4.582498e-06
4.506654e-06
4.45254e-06
4.41959e-06
4.375772e-06
4.311914e-06
4.226387e-06
4.123248e-06
4.012858e-06
3.907278e-06
3.795539e-06
3.666818e-06
3.500611e-06
3.303349e-06
3.370088e-06
5.887591e-06
7.337271e-06
3.939879e-06
4.168217e-06
4.395735e-06
4.559548e-06
4.732009e-06
4.927861e-06
5.084277e-06
5.208638e-06
5.306212e-06
5.376554e-06
5.416729e-06
5.429969e-06
5.422716e-06
5.402e-06
5.375676e-06
5.345447e-06
5.295219e-06
5.20022e-06
5.063432e-06
4.914821e-06
4.80447e-06
4.73566e-06
4.660278e-06
4.571499e-06
4.535579e-06
4.514429e-06
4.479204e-06
4.431202e-06
4.367595e-06
4.28301e-06
4.179885e-06
4.069815e-06
3.965435e-06
3.840156e-06
3.677336e-06
3.479553e-06
3.259792e-06
3.296158e-06
5.772185e-06
7.365456e-06
4.189395e-06
4.366725e-06
4.599307e-06
4.808905e-06
5.007918e-06
5.197348e-06
5.360144e-06
5.489499e-06
5.58558e-06
5.647805e-06
5.677219e-06
5.682464e-06
5.669234e-06
5.637814e-06
5.58872e-06
5.525246e-06
5.437733e-06
5.317523e-06
5.17962e-06
5.04907e-06
4.935732e-06
4.819622e-06
4.72255e-06
4.664864e-06
4.638488e-06
4.602678e-06
4.556076e-06
4.502439e-06
4.437595e-06
4.353996e-06
4.250918e-06
4.137152e-06
4.02493e-06
3.889762e-06
3.701727e-06
3.467457e-06
3.222734e-06
3.279861e-06
6.026548e-06
7.262333e-06
4.415839e-06
4.565162e-06
4.791511e-06
5.006208e-06
5.212503e-06
5.400845e-06
5.555258e-06
5.672152e-06
5.751053e-06
5.793252e-06
5.80204e-06
5.784355e-06
5.74391e-06
5.685581e-06
5.616823e-06
5.545538e-06
5.467364e-06
5.374274e-06
5.273468e-06
5.172351e-06
5.060535e-06
4.941378e-06
4.842645e-06
4.795527e-06
4.752468e-06
4.700886e-06
4.644439e-06
4.586109e-06
4.52075e-06
4.438918e-06
4.337677e-06
4.219681e-06
4.090694e-06
3.941597e-06
3.741029e-06
3.479276e-06
3.198579e-06
3.218437e-06
6.102115e-06
7.184645e-06
4.68911e-06
4.81158e-06
4.987457e-06
5.167085e-06
5.352267e-06
5.522423e-06
5.655066e-06
5.746612e-06
5.800457e-06
5.821057e-06
5.809805e-06
5.769982e-06
5.709526e-06
5.639996e-06
5.575479e-06
5.524079e-06
5.478591e-06
5.428905e-06
5.373468e-06
5.294612e-06
5.186828e-06
5.072324e-06
4.975436e-06
4.922618e-06
4.867754e-06
4.807411e-06
4.745414e-06
4.683546e-06
4.616889e-06
4.537002e-06
4.438838e-06
4.319575e-06
4.177353e-06
4.010624e-06
3.799517e-06
3.520073e-06
3.209729e-06
3.199525e-06
6.281019e-06
7.40168e-06
5.052791e-06
5.102852e-06
5.190114e-06
5.309821e-06
5.449268e-06
5.578699e-06
5.676254e-06
5.741811e-06
5.781179e-06
5.794958e-06
5.778904e-06
5.736816e-06
5.678702e-06
5.61676e-06
5.564994e-06
5.530278e-06
5.507811e-06
5.488602e-06
5.451918e-06
5.381524e-06
5.291313e-06
5.193666e-06
5.101642e-06
5.040231e-06
4.980437e-06
4.91642e-06
4.851847e-06
4.787735e-06
4.719445e-06
4.640112e-06
4.544282e-06
4.427533e-06
4.284314e-06
4.108126e-06
3.886059e-06
3.59297e-06
3.256925e-06
3.220144e-06
6.517747e-06
7.647062e-06
5.325096e-06
5.358678e-06
5.385346e-06
5.441692e-06
5.518181e-06
5.595258e-06
5.65782e-06
5.70736e-06
5.745071e-06
5.759109e-06
5.746044e-06
5.711049e-06
5.662979e-06
5.613215e-06
5.571535e-06
5.540987e-06
5.5221e-06
5.509292e-06
5.482681e-06
5.436129e-06
5.374973e-06
5.302029e-06
5.221654e-06
5.148846e-06
5.085947e-06
5.020324e-06
4.953727e-06
4.8875e-06
4.81753e-06
4.738283e-06
4.644836e-06
4.532327e-06
4.393657e-06
4.217528e-06
3.989103e-06
3.685496e-06
3.330285e-06
3.279054e-06
6.703382e-06
7.762506e-06
5.319244e-06
5.46144e-06
5.49922e-06
5.522817e-06
5.547925e-06
5.579825e-06
5.615997e-06
5.656811e-06
5.689938e-06
5.702834e-06
5.694062e-06
5.667415e-06
5.629817e-06
5.590993e-06
5.558429e-06
5.534449e-06
5.520737e-06
5.514842e-06
5.507486e-06
5.48893e-06
5.452259e-06
5.398706e-06
5.331692e-06
5.259256e-06
5.1849e-06
5.114467e-06
5.044798e-06
4.975848e-06
4.904533e-06
4.825713e-06
4.734748e-06
4.626553e-06
4.493425e-06
4.32226e-06
4.096912e-06
3.793449e-06
3.434567e-06
3.385138e-06
6.893214e-06
7.832993e-06
5.017011e-06
5.350674e-06
5.472149e-06
5.497543e-06
5.500908e-06
5.510869e-06
5.535874e-06
5.573122e-06
5.603951e-06
5.619686e-06
5.618758e-06
5.605403e-06
5.585103e-06
5.564228e-06
5.54757e-06
5.536067e-06
5.530642e-06
5.532925e-06
5.540504e-06
5.544769e-06
5.529155e-06
5.488593e-06
5.431929e-06
5.366471e-06
5.290635e-06
5.204397e-06
5.123589e-06
5.049848e-06
4.976953e-06
4.898521e-06
4.809669e-06
4.705066e-06
4.576942e-06
4.412882e-06
4.195802e-06
3.900624e-06
3.549719e-06
3.506053e-06
7.083314e-06
7.786392e-06
4.551258e-06
5.028259e-06
5.2795e-06
5.357632e-06
5.379989e-06
5.397021e-06
5.428894e-06
5.468339e-06
5.50317e-06
5.526583e-06
5.538811e-06
5.543436e-06
5.547651e-06
5.551874e-06
5.553464e-06
5.552831e-06
5.550776e-06
5.559157e-06
5.577967e-06
5.598464e-06
5.601099e-06
5.572837e-06
5.523941e-06
5.4655e-06
5.393349e-06
5.300289e-06
5.197409e-06
5.108111e-06
5.032033e-06
4.953391e-06
4.866065e-06
4.764585e-06
4.640578e-06
4.482199e-06
4.274117e-06
3.993578e-06
3.659122e-06
3.625817e-06
7.295447e-06
7.783014e-06
4.154486e-06
4.64432e-06
5.009861e-06
5.167292e-06
5.231254e-06
5.267615e-06
5.309783e-06
5.354351e-06
5.395311e-06
5.429353e-06
5.457136e-06
5.482953e-06
5.509457e-06
5.532478e-06
5.550465e-06
5.563734e-06