/*--------------------------------*- C++ -*----------------------------------*\
| =========                 |                                                 |
| \\      /  F ield         | OpenFOAM: The Open Source CFD Toolbox           |
|  \\    /   O peration     | Version:  2212                                  |
|   \\  /    A nd           | Website:  www.openfoam.com                      |
|    \\/     M anipulation  |                                                 |
\*---------------------------------------------------------------------------*/
FoamFile
{
    version     2.0;
    format      ascii;
    arch        "LSB;label=32;scalar=64";
    class       volScalarField;
    location    "1000";
    object      k;
}
// * * * * * * * * * * * * * * * * * * * * * * * * * * * * * * * * * * * * * //

dimensions      [0 2 -2 0 0 0 0];

internalField   nonuniform List<scalar> 
96000
(
0.0004008095
0.0003579904
0.0003257387
0.0002888154
0.0002754873
0.0002685779
0.0002805319
0.0002917733
0.0003069046
0.0003130683
0.0003219741
0.000324629
0.0003169687
0.0003110181
0.0003101758
0.0003116428
0.0003140276
0.0003206462
0.0003371171
0.0003583532
0.0003813392
0.0004039281
0.0004258303
0.000437254
0.0004275309
0.0004044627
0.0003874153
0.000397
0.0004131222
0.0004350363
0.0004564412
0.0004700185
0.0004654461
0.0004430834
0.0004137445
0.0003809678
0.0003531688
0.0003459915
0.0003298869
0.0002917481
0.0003782474
0.000371974
0.0003750339
0.0003622865
0.0003533537
0.000345341
0.0003466775
0.0003523169
0.0003653652
0.000376249
0.000385397
0.0003882473
0.0003843696
0.0003825495
0.0003875191
0.0003964514
0.0004055215
0.000414939
0.0004281394
0.0004440321
0.0004606867
0.0004767079
0.0004911683
0.0005005564
0.0004957693
0.0004718152
0.0004438552
0.0004528164
0.0004815694
0.0005081288
0.0005278713
0.0005358403
0.0005243865
0.0004985602
0.0004677694
0.0004341265
0.0004034032
0.0003852313
0.0003636686
0.000319907
0.0003813768
0.0004054706
0.0004287442
0.0004280012
0.0004233429
0.0004143502
0.0004110549
0.0004105713
0.0004240116
0.0004359224
0.0004444683
0.0004480807
0.0004475975
0.0004499801
0.0004592758
0.0004712152
0.0004826457
0.0004928281
0.0005026473
0.0005118713
0.0005196422
0.0005251621
0.0005276366
0.0005245807
0.0005115666
0.0004862394
0.0004637169
0.0004775457
0.0005044157
0.0005260854
0.0005429104
0.0005527518
0.0005493619
0.0005325193
0.0005068645
0.0004752713
0.0004410185
0.0004093759
0.0003722351
0.0003196257
0.000407729
0.0004484717
0.0004836969
0.0004912921
0.0004913546
0.0004844293
0.0004829494
0.0004847634
0.0004900604
0.0004959038
0.0005024951
0.0005071956
0.0005090942
0.0005130298
0.0005228207
0.000534591
0.0005438152
0.0005493399
0.0005517108
0.0005507374
0.0005464625
0.0005394734
0.0005306254
0.0005193062
0.000504058
0.0004848771
0.0004740678
0.0004870471
0.0005062088
0.0005202733
0.0005316588
0.0005415033
0.0005455379
0.0005396775
0.0005237443
0.0004998575
0.0004693865
0.000433507
0.0003907225
0.0003353537
0.000437061
0.0004934951
0.000534245
0.0005489175
0.0005533546
0.000550131
0.0005499416
0.0005499531
0.0005509666
0.0005541071
0.0005593641
0.0005642251
0.0005671351
0.0005704101
0.0005766812
0.0005826659
0.0005847283
0.0005818057
0.0005739987
0.0005613658
0.0005448852
0.000526703
0.0005113062
0.0004995366
0.0004886389
0.000482139
0.0004818201
0.0004898552
0.0004998956
0.0005058716
0.0005103455
0.0005165212
0.0005237584
0.0005273923
0.0005224978
0.0005074073
0.0004819344
0.0004453059
0.0003950613
0.0003312789
0.000455673
0.0005318709
0.0005747157
0.0005941985
0.0006015436
0.0006013172
0.0006017808
0.0006013411
0.0006014748
0.0006036221
0.0006076146
0.0006109581
0.0006118299
0.0006110453
0.0006106061
0.0006085795
0.0006024127
0.0005909354
0.0005737483
0.0005517693
0.000526896
0.0005030489
0.0004874832
0.0004783669
0.000476498
0.0004821478
0.0004866845
0.0004886511
0.0004909125
0.0004909407
0.0004901961
0.0004921169
0.0004985727
0.0005075678
0.0005122165
0.0005061846
0.0004866398
0.0004523795
0.0003993202
0.000332752
0.0004611252
0.0005557524
0.0006014501
0.0006238137
0.0006328086
0.0006345073
0.0006350289
0.0006343015
0.0006342139
0.0006354764
0.0006372831
0.0006373762
0.0006342597
0.000627983
0.0006203214
0.0006107729
0.0005979849
0.0005804446
0.0005579459
0.0005321081
0.0005061447
0.000484285
0.0004706636
0.0004656679
0.0004728085
0.0004835573
0.0004875739
0.0004858515
0.0004836758
0.0004807994
0.0004768688
0.0004744955
0.0004772672
0.0004873245
0.0004983863
0.0005011959
0.0004899247
0.0004621821
0.0004135917
0.000347602
0.0004580664
0.0005666273
0.0006145984
0.0006378058
0.0006471943
0.0006487344
0.000648353
0.0006472092
0.0006465979
0.0006461385
0.0006445987
0.0006402666
0.0006322975
0.0006209865
0.0006078389
0.0005934182
0.0005771409
0.0005577661
0.0005353524
0.0005123896
0.0004918885
0.0004762932
0.0004667485
0.0004672016
0.0004770848
0.0004866288
0.0004879041
0.0004839442
0.0004803011
0.0004771388
0.0004723568
0.0004665986
0.0004639484
0.0004705122
0.0004830831
0.0004911541
0.0004863643
0.0004636786
0.0004164135
0.0003476568
0.0004502653
0.0005666126
0.0006152504
0.0006374351
0.0006453493
0.0006458702
0.0006446515
0.0006431378
0.0006413149
0.0006381492
0.0006325998
0.000623837
0.0006120335
0.0005977914
0.0005821641
0.0005657512
0.0005489337
0.0005314214
0.0005140313
0.0004988949
0.0004869478
0.0004779491
0.0004741388
0.0004794339
0.0004882905
0.0004915534
0.0004889602
0.000484477
0.0004816449
0.0004796955
0.0004755043
0.000468127
0.0004606029
0.0004612755
0.0004718218
0.000482043
0.000481858
0.000464271
0.0004207615
0.0003522548
0.0004375358
0.0005563158
0.0006039147
0.000623837
0.0006302287
0.0006311532
0.0006309771
0.0006296868
0.0006265765
0.0006207845
0.0006118979
0.0005999657
0.0005857161
0.0005698539
0.000553583
0.0005377449
0.0005231467
0.0005103551
0.0005001902
0.0004932651
0.0004888136
0.00048678
0.000489022
0.0004946524
0.0005000123
0.0004995392
0.0004954222
0.000491011
0.0004887938
0.0004875266
0.0004839802
0.0004766827
0.0004674305
0.0004627443
0.0004680293
0.0004769274
0.0004787569
0.0004641625
0.0004223387
0.0003513073
0.000418107
0.0005341862
0.0005802922
0.0005991252
0.0006072053
0.0006114567
0.0006139492
0.0006135665
0.0006098391
0.0006026949
0.0005924921
0.0005795352
0.0005644787
0.0005485562
0.0005331858
0.0005195157
0.0005082289
0.000499743
0.0004948752
0.0004940153
0.0004955305
0.0004982531
0.000502121
0.0005064581
0.0005098877
0.0005087595
0.0005050801
0.0005013875
0.000499282
0.0004979133
0.0004951767
0.0004900297
0.0004828559
0.0004765101
0.0004759032
0.0004807245
0.0004818123
0.0004681075
0.0004260914
0.0003500282
0.0003962179
0.0005012748
0.0005444428
0.0005661853
0.0005807473
0.000590935
0.0005971119
0.0005985397
0.0005957378
0.0005894809
0.0005803398
0.000568336
0.0005544108
0.0005398853
0.0005260943
0.0005143273
0.000505355
0.0004994503
0.0004973165
0.0004986132
0.0005018649
0.0005061431
0.0005102345
0.0005137243
0.0005166974
0.0005165537
0.0005142504
0.0005116763
0.0005100415
0.000509082
0.0005077512
0.000505141
0.0005007972
0.0004954237
0.0004918239
0.0004919836
0.0004902846
0.0004759216
0.0004340323
0.0003555097
0.0003941663
0.0004701838
0.0005044926
0.0005319698
0.0005547266
0.000571448
0.0005818705
0.0005862504
0.0005860018
0.0005823392
0.0005750538
0.0005647902
0.0005526222
0.0005399178
0.0005282559
0.0005189882
0.0005119933
0.0005066491
0.0005038029
0.000503604
0.0005060784
0.0005102465
0.0005144745
0.0005178452
0.0005203585
0.0005216359
0.0005210466
0.0005198858
0.0005192668
0.0005192146
0.0005193237
0.0005187849
0.0005168284
0.0005133539
0.0005095033
0.0005069222
0.0005021383
0.0004854103
0.0004419306
0.0003613249
0.0004133582
0.0004824839
0.0004977052
0.0005162727
0.0005388399
0.0005583576
0.0005716111
0.0005787673
0.0005812719
0.0005796407
0.0005743257
0.0005663469
0.0005565048
0.0005458108
0.0005357149
0.0005276911
0.0005214347
0.000515833
0.0005111083
0.000508507
0.0005091345
0.0005122959
0.0005162901
0.0005196491
0.0005220827
0.0005236225
0.0005245986
0.0005250866
0.0005257837
0.0005268731
0.0005282099
0.0005292281
0.0005290889
0.0005274861
0.0005247276
0.0005214506
0.0005149827
0.0004965287
0.0004522739
0.0003696787
0.0004395456
0.0005154078
0.0005260547
0.0005355277
0.0005486806
0.0005618011
0.0005719348
0.000578253
0.0005808621
0.0005795969
0.0005752502
0.0005684793
0.0005600327
0.0005507096
0.0005418494
0.000534707
0.0005290401
0.0005235208
0.0005178253
0.0005132421
0.0005118781
0.00051373
0.0005169492
0.0005198986
0.000522064
0.0005237093
0.0005248742
0.0005265797
0.0005286704
0.0005309978
0.0005335012
0.0005359072
0.0005373918
0.0005375958
0.0005364206
0.0005335457
0.0005264798
0.0005074671
0.0004634854
0.0003793422
0.0004586341
0.0005433989
0.0005538386
0.0005567481
0.0005618011
0.0005685734
0.0005744957
0.0005783302
0.0005790258
0.0005768357
0.000572307
0.0005660639
0.000558668
0.0005512545
0.0005445428
0.0005390328
0.0005343409
0.0005290334
0.0005233925
0.0005181309
0.0005151856
0.000515289
0.0005170895
0.0005191338
0.0005208353
0.0005222327
0.0005231905
0.0005246065
0.0005274869
0.0005312117
0.0005349965
0.0005388111
0.0005419428
0.0005440776
0.0005447432
0.0005428466
0.000536059
0.0005173959
0.0004745218
0.0003895048
0.0004683929
0.0005563106
0.0005678726
0.0005671834
0.0005670652
0.000569451
0.0005721269
0.0005735873
0.0005723974
0.0005689482
0.0005639875
0.0005581911
0.0005522991
0.0005469044
0.0005423147
0.0005390031
0.0005362914
0.0005324824
0.0005277191
0.0005227333
0.0005191676
0.0005174016
0.0005171209
0.0005174878
0.0005180414
0.000518708
0.0005194228
0.0005203001
0.0005227688
0.0005277709
0.0005330087
0.0005382898
0.0005432471
0.0005475571
0.0005500731
0.0005493304
0.0005431384
0.0005252409
0.0004836113
0.0003974844
0.0004700077
0.000556547
0.0005694774
0.0005669122
0.0005632431
0.0005625359
0.0005630653
0.0005631118
0.000561119
0.0005571164
0.0005522237
0.0005474238
0.0005430912
0.000539358
0.0005370212
0.0005360068
0.0005354295
0.0005336966
0.0005305484
0.0005264435
0.0005229711
0.0005199635
0.0005174371
0.0005156019
0.0005143914
0.0005137104
0.000513511
0.0005139167
0.0005159572
0.0005216878
0.0005284936
0.000535216
0.0005420992
0.0005486015
0.0005528635
0.0005531309
0.0005476059
0.0005306947
0.0004904461
0.0004033089
0.0004667133
0.0005499506
0.0005644928
0.0005611798
0.0005543898
0.0005505579
0.000548696
0.0005477546
0.0005462244
0.0005430787
0.0005394373
0.0005365013
0.0005341211
0.0005323122
0.0005319363
0.000532513
0.0005332923
0.0005333757
0.0005319151
0.0005290974
0.000525955
0.0005222913
0.0005181189
0.0005140229
0.0005107401
0.0005084198
0.0005068156
0.000506159
0.0005081724
0.0005146427
0.0005228826
0.0005309561
0.0005397243
0.0005480149
0.0005536162
0.0005546351
0.0005495981
0.0005335499
0.0004946667
0.0004074426
0.0004615703
0.0005418488
0.0005580368
0.0005549978
0.0005451
0.0005375075
0.0005319796
0.0005291173
0.0005286144
0.000528223
0.0005271925
0.0005265598
0.0005264369
0.0005268401
0.000527919
0.0005291551
0.0005305682
0.000531724
0.0005317619
0.0005304271
0.0005277755
0.0005237869
0.0005186696
0.0005130037
0.0005077342
0.0005036862
0.0005008629
0.000499299
0.0005012692
0.0005088009
0.0005179309
0.0005271363
0.0005373646
0.0005466274
0.0005529205
0.0005543045
0.0005494304
0.0005338269
0.0004959882
0.0004091467
0.0004558881
0.0005341418
0.0005528764
0.0005513899
0.0005403352
0.0005283043
0.0005181137
0.0005112468
0.0005101257
0.0005125223
0.0005151297
0.0005174869
0.0005197888
0.0005223188
0.0005248618
0.0005266192
0.0005279575
0.0005293836
0.0005302358
0.0005301346
0.0005283488
0.0005244704
0.0005186981
0.0005121993
0.0005058705
0.0005004467
0.0004967102
0.0004949678
0.0004976549
0.0005056042
0.0005149605
0.000524823
0.000535625
0.0005449916
0.0005512374
0.0005524662
0.0005472426
0.0005314343
0.0004937561
0.0004064309
0.0004490869
0.0005260831
0.0005489845
0.0005509602
0.0005415211
0.0005275959
0.0005132829
0.0005016684
0.0004957281
0.0004969109
0.0005023527
0.0005083151
0.0005133808
0.0005177039
0.0005214041
0.0005238797
0.0005251739
0.0005263756
0.0005275106
0.0005279212
0.0005268317
0.0005240305
0.0005193219
0.0005130284
0.000506127
0.0004996656
0.0004951984
0.0004941218
0.0004979105
0.0005054485
0.0005145094
0.0005244615
0.0005348002
0.0005434548
0.0005489866
0.0005495516
0.000543459
0.0005268467
0.0004884895
0.0004003842
0.0004401724
0.000516008
0.0005443748
0.0005516337
0.0005468742
0.0005350328
0.0005205827
0.0005059901
0.0004940766
0.0004887373
0.0004912501
0.0004987003
0.0005060866
0.0005117649
0.0005161205
0.0005190742
0.0005208043
0.000522098
0.0005232577
0.00052369
0.0005232031
0.0005222292
0.0005186412
0.0005135927
0.0005077512
0.0005018303
0.0004974869
0.0004967959
0.0005006253
0.0005076073
0.0005161653
0.0005256095
0.0005347486
0.0005421377
0.0005464971
0.0005460729
0.000538743
0.0005210088
0.0004816501
0.0003937013
0.0004286565
0.0005031948
0.0005370978
0.0005505026
0.000552525
0.0005460401
0.0005348283
0.0005207992
0.0005063138
0.0004944347
0.0004889393
0.0004916326
0.0004984098
0.0005042469
0.0005089283
0.0005123459
0.0005145388
0.0005158401
0.0005165654
0.0005171147
0.0005179891
0.0005182918
0.0005158764
0.0005125151
0.0005086776
0.0005049013
0.0005018602
0.0005015134
0.0005051295
0.000511465
0.0005192641
0.0005275863
0.0005351838
0.0005410256
0.0005440439
0.0005425563
0.0005339591
0.000515178
0.0004749833
0.0003886217
0.0004148443
0.000488234
0.0005269528
0.0005461651
0.0005552635
0.0005553891
0.0005492
0.0005380656
0.0005243108
0.0005102108
0.0004986958
0.0004927575
0.0004935655
0.0004973278
0.0005010007
0.000503967
0.000505863
0.0005068073
0.0005071356
0.0005077898
0.0005103774
0.0005118885
0.0005110506
0.0005098607
0.0005086888
0.0005071548
0.0005058928
0.0005067087
0.0005102673
0.0005159768
0.0005228918
0.0005298533
0.0005358124
0.0005400485
0.0005417993
0.000539449
0.000530028
0.0005104759
0.0004696725
0.0003859898
0.0003993108
0.0004721495
0.0005147879
0.000538615
0.0005536104
0.0005598538
0.0005593294
0.0005526954
0.0005414182
0.0005278673
0.0005139568
0.0005024962
0.0004956491
0.0004935159
0.0004934136
0.0004935314
0.0004941181
0.0004943851
0.0004943576
0.0004953152
0.000499369
0.000502324
0.0005036637
0.0005052307
0.0005068885
0.000507714
0.0005085136
0.0005106362
0.0005144629
0.0005198382
0.0005259683
0.0005316718
0.0005361328
0.0005389442
0.0005396776
0.0005368829
0.0005272758
0.0005073506
0.0004659305
0.0003855743
0.0003818911
0.0004556447
0.0005014563
0.0005282732
0.0005474334
0.000558843
0.0005637248
0.000562251
0.0005548173
0.0005431911
0.0005292247
0.0005148697
0.0005025737
0.0004936462
0.0004875609
0.0004827956
0.0004799332
0.0004787427
0.0004782285
0.0004796088
0.0004847402
0.0004891663
0.0004929694
0.0004974698
0.0005020098
0.0005053888
0.0005083368
0.0005119153
0.0005164764
0.0005218951
0.0005274297
0.0005321283
0.0005353267
0.0005369786
0.0005370139
0.0005342473
0.0005250898
0.0005055177
0.0004639382
0.0003872261
0.0003624747
0.0004393114
0.0004876291
0.0005158156
0.0005373094
0.0005527844
0.0005625888
0.0005661709
0.0005632885
0.0005546491
0.0005419616
0.0005267805
0.0005110784
0.0004965836
0.0004840366
0.0004735594
0.0004659204
0.0004621905
0.0004607544
0.0004625466
0.0004681337
0.0004737935
0.0004795187
0.0004865322
0.0004934375
0.0004992665
0.0005044981
0.0005097537
0.0005153266
0.0005210307
0.0005262125
0.0005300809
0.0005321589
0.0005326807
0.0005319802
0.0005290648
0.0005200583
0.0005007232
0.0004592364
0.0003865697
0.0003433498
0.0004249443
0.0004748178
0.000503004
0.0005250671
0.0005431152
0.0005570723
0.0005653169
0.0005667922
0.0005616906
0.0005511387
0.0005365438
0.0005193132
0.0005010679
0.0004831016
0.0004672316
0.0004556307
0.0004490213
0.0004462327
0.0004480578
0.0004531708
0.0004585227
0.0004647377
0.0004733284
0.000482034
0.0004899116
0.0004971084
0.0005039759
0.0005105116
0.0005164944
0.000521405
0.0005244709
0.0005252116
0.0005240241
0.0005215216
0.0005168718
0.000506511
0.0004865667
0.0004449341
0.0003774635
0.0003309607
0.0004143994
0.0004648719
0.0004926723
0.0005144648
0.0005334039
0.000550039
0.0005617095
0.0005665202
0.0005643928
0.0005559506
0.0005423573
0.0005248653
0.0005048001
0.0004841924
0.0004657964
0.0004519156
0.0004433843
0.0004400204
0.0004413932
0.000444835
0.0004484702
0.0004536147
0.000461661
0.0004706422
0.0004795275
0.0004878396
0.000495501
0.0005024291
0.0005084365
0.000512937
0.0005149161
0.000513665
0.0005095875
0.0005033419
0.0004945344
0.0004807631
0.000458655
0.0004175958
0.0003594441
0.0003294507
0.000407354
0.0004581386
0.0004867547
0.0005084349
0.0005273031
0.0005445281
0.0005575032
0.000563964
0.0005634912
0.0005564064
0.0005434467
0.0005259301
0.0005055164
0.0004851099
0.0004666537
0.000452493
0.0004439329
0.0004407775
0.0004414101
0.0004442274
0.0004471558
0.0004503293
0.0004552729
0.0004619588
0.0004698871
0.0004780478
0.0004856346
0.0004922607
0.0004977339
0.0005013832
0.0005018482
0.0004980184
0.0004899546
0.0004784893
0.0004649472
0.0004491313
0.000428711
0.0003912951
0.0003391208
0.0003423499
0.0004086396
0.0004567132
0.0004859679
0.0005072434
0.0005254174
0.0005417857
0.0005541901
0.0005606285
0.0005603726
0.0005535437
0.0005407999
0.0005232926
0.0005031485
0.0004832573
0.0004660107
0.000453211
0.0004460293
0.0004431238
0.0004434102
0.0004464888
0.0004500651
0.0004522232
0.000454266
0.0004580007
0.0004630951
0.0004689034
0.0004749484
0.0004804732
0.0004847872
0.0004869678
0.00048562
0.0004794689
0.0004684178
0.0004535903
0.0004377953
0.0004243017
0.0004086821
0.0003758338
0.000319694
0.0003614802
0.0004142111
0.0004556766
0.0004849172
0.0005067847
0.0005252179
0.0005408519
0.0005521192
0.0005575849
0.0005566146
0.000549286
0.0005363192
0.0005190188
0.0004994271
0.000480317
0.0004645481
0.0004537335
0.0004472598
0.0004444223
0.0004451189
0.000449223
0.0004538296
0.0004565345
0.0004590786
0.0004617275
0.0004639688
0.0004658961
0.0004680591
0.0004703116
0.0004717975
0.0004713191
0.0004676528
0.0004599596
0.0004487562
0.0004346143
0.0004208955
0.000408644
0.0003938229
0.0003645285
0.0003087382
0.0003693131
0.0004125102
0.0004475309
0.0004778599
0.0005026277
0.0005230506
0.0005390576
0.0005497304
0.0005542871
0.0005524728
0.000544524
0.000531317
0.0005143692
0.0004959241
0.00047865
0.0004647842
0.0004548001
0.0004477442
0.0004443642
0.0004459153
0.0004519421
0.0004588517
0.000464598
0.0004689455
0.0004720482
0.0004729391
0.0004719845
0.0004698753
0.0004670359
0.0004632231
0.000457763
0.0004502522
0.0004414327
0.0004324567
0.0004219419
0.0004096311
0.0003929822
0.0003752375
0.000351645
0.0003028243
0.0003665815
0.0004011758
0.0004308453
0.0004627569
0.0004918644
0.0005153629
0.0005328033
0.0005438019
0.0005481101
0.000545963
0.0005378307
0.0005247918
0.0005085158
0.0004914252
0.0004761201
0.0004641223
0.0004547222
0.0004464423
0.0004423914
0.0004459821
0.0004556816
0.0004665081
0.0004762781
0.0004842506
0.0004895472
0.0004910249
0.0004892813
0.0004842303
0.0004761396
0.0004651844
0.0004517451
0.0004371384
0.0004257308
0.0004192875
0.0004126444
0.0004006408
0.0003796836
0.0003587723
0.0003367863
0.0002924208
0.0003616537
0.0003864361
0.0004097888
0.0004418094
0.0004742648
0.0005000389
0.0005190581
0.0005308818
0.000535595
0.0005339027
0.000526445
0.0005144421
0.0004994313
0.0004837502
0.0004698255
0.0004586122
0.0004492641
0.0004407147
0.0004376738
0.0004447665
0.000457779
0.0004706145
0.0004831002
0.000494038
0.0005020688
0.0005054896
0.0005059933
0.000502034
0.000492132
0.0004762966
0.0004550698
0.0004309099
0.0004136795
0.0004073169
0.000402234
0.0003900085
0.0003661266
0.0003477259
0.00032499
0.0002839376
0.0003543482
0.0003709254
0.0003867017
0.0004165192
0.0004492886
0.0004750494
0.0004944406
0.0005066217
0.000511859
0.0005113552
0.0005056064
0.0004957716
0.0004829744
0.0004691857
0.0004564272
0.0004456585
0.0004368523
0.0004310858
0.0004308781
0.0004390533
0.0004512389
0.0004631715
0.0004760214
0.000489091
0.0004997971
0.000505602
0.0005098978
0.0005098904
0.0005017955
0.0004853435
0.0004600907
0.0004286897
0.0004065799
0.0003983567
0.0003919465
0.0003766634
0.0003485246
0.0003391268
0.0003222575
0.0002919008
0.0003388037
0.0003535232
0.0003612758
0.0003884858
0.0004179088
0.0004405096
0.000457795
0.000468896
0.0004740663
0.0004752227
0.0004720779
0.0004654184
0.0004558208
0.0004449637
0.0004344701
0.0004251385
0.0004186447
0.0004159294
0.0004173822
0.000422753
0.0004312605
0.0004406749
0.0004518729
0.0004653765
0.000477493
0.0004852161
0.0004941461
0.0004993946
0.0004948528
0.0004803998
0.0004559462
0.0004231598
0.0004012848
0.0003937357
0.0003872181
0.0003700164
0.0003413986
0.0003271808
0.0003131096
0.0002839806
0.0003082037
0.0003274052
0.000327849
0.000349162
0.0003703567
0.0003856184
0.0003978958
0.0004061878
0.0004101928
0.0004126749
0.0004121576
0.0004087976
0.000402523
0.000395208
0.0003887266
0.0003851695
0.0003862448
0.0003888046
0.0003898971
0.0003901721
0.0003925069
0.0003979633
0.0004057437
0.0004175413
0.0004275367
0.0004395025
0.0004547373
0.0004638175
0.0004632062
0.0004516216
0.0004319326
0.0004046289
0.0003874282
0.0003822693
0.0003766535
0.0003598234
0.0003306704
0.0003053871
0.0002864229
0.0002531268
0.0002594217
0.000283488
0.000274197
0.0002893747
0.0003002068
0.0003079153
0.0003149313
0.0003201297
0.000321783
0.0003247955
0.0003260891
0.0003254114
0.0003226942
0.0003209162
0.0003211471
0.0003232326
0.0003289307
0.0003339321
0.0003335603
0.0003294569
0.0003253743
0.0003273663
0.0003334492
0.0003435603
0.0003522753
0.0003715481
0.0003874424
0.0003918195
0.0003894114
0.0003766518
0.0003615472
0.0003423728
0.0003323119
0.0003314283
0.0003295205
0.0003176227
0.0002940319
0.0002694203
0.0002427671
0.0002005479
0.0004411053
0.0004153882
0.000421678
0.0003756601
0.0003698873
0.0003461695
0.0003526888
0.0003694153
0.0003894196
0.0003903943
0.0003973659
0.0004041005
0.0003937458
0.0003805376
0.0003766733
0.0003807662
0.0003869492
0.0003912495
0.0003954731
0.0004009197
0.0004071731
0.0004135072
0.0004204824
0.000426203
0.0004351461
0.0004469092
0.0004623932
0.0004649582
0.0004584518
0.0004565264
0.0004539738
0.0004514287
0.0004464354
0.0004414721
0.0004320191
0.0004081335
0.0003800043
0.0003629107
0.0003428858
0.000317193
0.0004146125
0.0003928181
0.0004211491
0.0004351154
0.00044637
0.0004536585
0.0004629214
0.0004663864
0.000475697
0.0004837486
0.0004939275
0.0005020953
0.0005041652
0.0005063357
0.00051219
0.0005189773
0.0005256615
0.0005298557
0.0005334397
0.0005367637
0.0005339051
0.0005203982
0.0004966309
0.000476308
0.0004704733
0.0004717109
0.0004751628
0.0004849288
0.0004828058
0.0004700049
0.0004550461
0.0004464357
0.0004516278
0.000462033
0.0004607269
0.0004449867
0.000428564
0.0004113928
0.0003746396
0.0003360697
0.0004119104
0.0004036017
0.000461817
0.0005017216
0.0005267702
0.0005439328
0.0005563632
0.0005653326
0.0005758163
0.0005883649
0.000601491
0.0006112691
0.0006150899
0.0006186481
0.0006254122
0.0006321032
0.0006363969
0.0006382121
0.0006387419
0.0006377577
0.0006325454
0.0006205287
0.0006016303
0.0005830075
0.0005703442
0.0005573698
0.0005484976
0.0005564829
0.0005571952
0.0005473215
0.0005357741
0.0005307631
0.0005380162
0.0005482085
0.0005479122
0.0005335348
0.0005062254
0.0004643787
0.000407592
0.0003491809
0.0004023764
0.0004154716
0.0004986736
0.0005534651
0.0005864263
0.0006073955
0.0006221623
0.0006331239
0.0006446989
0.0006578143
0.0006718953
0.0006838938
0.000691791
0.0006981575
0.0007043596
0.0007084883
0.0007094406
0.0007079335
0.0007050696
0.0007013432
0.0006960221
0.0006876979
0.000675829
0.0006616549
0.0006458704
0.0006290881
0.0006190992
0.0006226303
0.000622566
0.0006145433
0.0006050899
0.0006012595
0.0006061338
0.0006128501
0.0006126285
0.0006014496
0.0005740663
0.0005236348
0.0004522658
0.0003787985
0.0004085466
0.0004309028
0.0005321936
0.0005961174
0.0006332811
0.0006554681
0.0006713021
0.0006842102
0.0006977838
0.0007130414
0.0007295354
0.0007441418
0.0007542967
0.000760913
0.0007649986
0.0007656861
0.0007626274
0.0007565329
0.0007491676
0.0007423107
0.0007366789
0.0007320049
0.0007255393
0.0007146702
0.0007014814
0.0006911741
0.0006873569
0.0006858192
0.0006815318
0.000672562
0.0006618952
0.0006547286
0.0006535419
0.000654244
0.0006513741
0.0006402043
0.0006120493
0.0005555512
0.0004694072
0.0003660142
0.000420876
0.0004467109
0.0005562412
0.0006260555
0.0006665614
0.0006909002
0.000709595
0.0007266831
0.0007446623
0.0007641227
0.0007838739
0.0008004828
0.0008112625
0.0008163863
0.000816876
0.0008126189
0.0008039181
0.0007918828
0.0007799923
0.0007705509
0.0007657992
0.0007635572
0.00075906
0.0007518172
0.0007470449
0.0007474482
0.0007471207
0.0007412718
0.0007333833
0.0007231338
0.0007107208
0.000698734
0.0006893522
0.0006819668
0.0006740769
0.0006600993
0.0006296093
0.0005693466
0.0004763274
0.0003634337
0.0004303653
0.0004613687
0.0005713683
0.0006427786
0.0006857409
0.0007149647
0.0007403607
0.0007651368
0.0007900291
0.0008145494
0.0008367929
0.0008537493
0.0008631353
0.0008648702
0.0008602783
0.0008505034
0.0008362547
0.0008201112
0.0008058084
0.0007967321
0.0007929927
0.0007910501
0.0007877146
0.0007873909
0.0007927698
0.00079826
0.0007958877
0.0007867586
0.000776812
0.0007660438
0.0007526444
0.000736478
0.0007189853
0.0007025908
0.0006877331
0.0006691531
0.0006354752
0.0005732254
0.0004788864
0.000378889
0.0004368573
0.0004708573
0.0005769256
0.0006477632
0.0006941197
0.0007312853
0.0007665052
0.0008006693
0.0008326856
0.0008611293
0.0008841549
0.0008997018
0.0009063276
0.0009040279
0.0008945946
0.0008799005
0.0008618886
0.0008439768
0.000830685
0.0008238849
0.0008216992
0.0008204849
0.0008210889
0.0008270568
0.0008357634
0.0008377188
0.0008317811
0.0008217773
0.0008111447
0.0007997114
0.0007853165
0.0007667862
0.0007441999
0.0007196743
0.0006968998
0.0006725233
0.0006347917
0.0005699616
0.0004727073
0.0003735992
0.0004379068
0.0004736633
0.0005725163
0.0006419319
0.000694758
0.0007431112
0.0007895909
0.0008323381
0.0008696612
0.0009001609
0.0009225925
0.0009358453
0.0009392973
0.000933444
0.0009205407
0.0009033606
0.0008845896
0.0008679469
0.0008571758
0.0008524777
0.0008512631
0.0008520864
0.0008569391
0.0008629891
0.0008662696
0.0008639369
0.0008570102
0.0008473974
0.0008370679
0.0008257233
0.0008112719
0.0007919351
0.0007670107
0.0007374648
0.0007068978
0.0006755684
0.0006333272
0.0005654122
0.0004674357
0.000384229
0.0004337765
0.0004716688
0.000561314
0.0006300885
0.0006913765
0.0007512987
0.0008073282
0.0008562082
0.0008964847
0.0009275254
0.0009489299
0.0009605762
0.0009629225
0.000957217
0.0009453848
0.0009293984
0.0009115816
0.0008956131
0.0008851157
0.0008801715
0.0008790045
0.0008810085
0.0008850973
0.0008883041
0.0008870747
0.0008825511
0.0008752935
0.0008665063
0.0008571561
0.0008465729
0.0008327186
0.0008138665
0.0007887077
0.0007568009
0.0007204239
0.0006818903
0.0006339959
0.000562116
0.0004617291
0.000387446
0.0004308577
0.00046834
0.000548548
0.0006177527
0.0006873843
0.0007565694
0.0008191341
0.000871776
0.0009139532
0.0009458323
0.0009676936
0.0009801073
0.0009841301
0.0009810451
0.0009721151
0.0009584108
0.0009416057
0.0009250752
0.00091239
0.0009047944
0.0009025731
0.0009037437
0.0009055723
0.0009058607
0.0009018879
0.0008961527
0.0008891106
0.0008813887
0.0008732247
0.0008636969
0.0008509322
0.0008330628
0.0008084682
0.0007761169
0.0007368568
0.0006922119
0.0006379629
0.0005620174
0.000459861
0.0003946255
0.0004398558
0.0004665547
0.0005378753
0.0006084756
0.000684444
0.0007594735
0.0008261382
0.0008815711
0.0009257115
0.0009590968
0.0009824982
0.0009969177
0.001003475
0.001003167
0.000996892
0.0009854548
0.0009702181
0.0009536258
0.0009385685
0.0009283489
0.0009237932
0.0009219266
0.0009202728
0.0009177403
0.0009121655
0.0009058384
0.0008992619
0.0008926487
0.0008857132
0.0008773378
0.0008657516
0.0008490204
0.0008254474
0.0007938
0.0007536361
0.0007050053
0.0006449905
0.0005646896
0.0004611273
0.0004042745
0.0004492018
0.0004654114
0.0005303971
0.0006026623
0.0006824747
0.0007606339
0.0008299518
0.0008877106
0.0009337917
0.0009689163
0.0009943094
0.001011156
0.001020317
0.001022584
0.001018759
0.001009883
0.0009971403
0.0009816123
0.0009654148
0.0009520767
0.0009428351
0.0009361352
0.0009303909
0.0009249973
0.0009188367
0.0009121542
0.0009060667
0.000900461
0.0008946747
0.0008874595
0.0008770993
0.0008616129
0.0008391993
0.0008084733
0.0007682747
0.0007174329
0.0006533099
0.0005693072
0.0004652431
0.0004117574
0.0004531907
0.000465689
0.0005328357
0.0006051771
0.0006852128
0.0007640971
0.0008345509
0.0008935948
0.0009408896
0.0009774393
0.001004672
0.001023643
0.001035055
0.001039524
0.001037789
0.001030906
0.001019873
0.00100522
0.0009882081
0.0009713635
0.0009570458
0.0009458615
0.0009368706
0.0009290924
0.0009219613
0.0009155706
0.0009100254
0.0009053142
0.0009005918
0.0008944845
0.000885303
0.0008710075
0.0008496548
0.000819724
0.0007797034
0.0007279418
0.0006616128
0.000575728
0.000472165
0.0004194912
0.0004559495
0.0004631256
0.0005452816
0.0006223279
0.0007009112
0.0007769627
0.0008451034
0.0009024953
0.0009487177
0.0009850326
0.001012686
0.001032496
0.001044901
0.001050363
0.00104963
0.001043738
0.001033718
0.001020022
0.00100307
0.0009842936
0.0009662981
0.0009516918
0.0009406374
0.0009314925
0.00092314
0.0009162003
0.0009113869
0.0009078105
0.0009040681
0.0008989049
0.0008906985
0.0008773822
0.0008568898
0.0008276039
0.0007878328
0.0007358031
0.0006686056
0.0005821891
0.0004793295
0.0004271377
0.0004544734
0.0004586668
0.0005565883
0.0006412465
0.0007202252
0.0007929856
0.0008568363
0.0009102435
0.0009535493
0.00098804
0.001014785
0.001034264
0.001046712
0.001052318
0.001051839
0.001046766
0.001038142
0.001026443
0.001010864
0.0009920322
0.0009723707
0.0009554039
0.000942754
0.0009328051
0.0009237029
0.0009158998
0.0009106379
0.0009079947
0.000905584
0.0009011439
0.0008936017
0.0008809757
0.0008611653
0.0008323711
0.0007928467
0.0007408954
0.0006736557
0.0005874709
0.0004850288
0.0004351452
0.0004546948
0.0004587098
0.0005668025
0.0006566487
0.0007357713
0.0008055526
0.0008649408
0.000913776
0.0009534586
0.0009853913
0.001010423
0.001028886
0.00104088
0.001046606
0.001047128
0.001043478
0.001036581
0.001026923
0.001013481