/*--------------------------------*- C++ -*----------------------------------*\
| =========                 |                                                 |
| \\      /  F ield         | OpenFOAM: The Open Source CFD Toolbox           |
|  \\    /   O peration     | Version:  2212                                  |
|   \\  /    A nd           | Website:  www.openfoam.com                      |
|    \\/     M anipulation  |                                                 |
\*---------------------------------------------------------------------------*/
FoamFile
{
    version     2.0;
    format      ascii;
    arch        "LSB;label=32;scalar=64";
    class       volScalarField;
    location    "1000";
    object      nut;
}
// * * * * * * * * * * * * * * * * * * * * * * * * * * * * * * * * * * * * * //

dimensions      [0 2 -1 0 0 0 0];

internalField   nonuniform List<scalar> 
96000
(
0.002074839
0.002124862
0.0020255
0.001903795
0.001859705
0.00183758
0.001876838
0.001916811
0.001974367
0.001997757
0.002025891
0.002032276
0.002006842
0.001985555
0.001978633
0.001977025
0.001978975
0.00199391
0.002044395
0.002111123
0.002180771
0.002247332
0.002312408
0.002348599
0.002323625
0.00225887
0.002206736
0.002228739
0.00227245
0.002330567
0.002386981
0.002423913
0.00241665
0.002363917
0.002290318
0.002199779
0.002116048
0.002086508
0.002034133
0.001914488
0.00219429
0.002165023
0.002170341
0.002133696
0.002108096
0.002083452
0.002083552
0.002100648
0.002147558
0.002184631
0.002211996
0.002218432
0.002205772
0.002198015
0.002207612
0.00222608
0.002244695
0.002267093
0.002305903
0.002351913
0.002398549
0.002442712
0.00248235
0.002508371
0.002499359
0.002438912
0.002361625
0.002377706
0.002450814
0.002516737
0.002565851
0.002588488
0.002567126
0.002510228
0.002437219
0.002350032
0.002263837
0.00220817
0.002142493
0.002007824
0.002197032
0.002256018
0.002317867
0.002315544
0.002301723
0.002275121
0.002262779
0.002262288
0.002307879
0.002345058
0.002369454
0.00237856
0.002375885
0.002380014
0.002401057
0.002428552
0.002454894
0.002480931
0.002507675
0.002532943
0.002554373
0.002570132
0.002578192
0.002571667
0.002538443
0.002471638
0.002408791
0.002439041
0.00250745
0.002561315
0.00260375
0.002630243
0.002626537
0.002591169
0.002532662
0.002454402
0.002362966
0.00227305
0.002164677
0.002004164
0.002265011
0.002370438
0.002461311
0.002480217
0.002478473
0.002458215
0.002451859
0.002459045
0.002477648
0.00249589
0.002513905
0.002525871
0.002530022
0.002538261
0.002560391
0.002587625
0.002609884
0.002624779
0.002632778
0.002632961
0.00262521
0.002610182
0.002588906
0.002558743
0.002517417
0.002464053
0.002431555
0.002462315
0.002512341
0.002548937
0.002578797
0.002604831
0.002617227
0.002606373
0.002570914
0.002513499
0.00243615
0.002338987
0.002220204
0.002055541
0.002343441
0.002488091
0.002588784
0.002623267
0.002631726
0.002622452
0.002621783
0.002623633
0.002628613
0.002637945
0.002651244
0.002662906
0.002669957
0.002677929
0.002692803
0.002707421
0.002713681
0.002708978
0.002693033
0.002665569
0.002628028
0.002584239
0.002543218
0.002509497
0.002476329
0.002454385
0.002451076
0.002472522
0.002500045
0.002516812
0.002529595
0.002546255
0.002565482
0.002575703
0.002565321
0.002529634
0.002466775
0.002371119
0.002234331
0.002045266
0.002394102
0.002586228
0.002688422
0.00273259
0.002747667
0.002746428
0.002747838
0.002748232
0.002750182
0.002756365
0.002766299
0.002774527
0.002777301
0.002776624
0.002776919
0.002773833
0.002761451
0.002736774
0.002698434
0.002647565
0.002587519
0.002526218
0.00248296
0.002453845
0.002442172
0.002453171
0.00246558
0.002473407
0.002481302
0.002483025
0.002482335
0.002488055
0.002504619
0.002526882
0.002538182
0.002523644
0.002475709
0.002388479
0.002247138
0.002052833
0.002410302
0.002646493
0.002753555
0.002803423
0.00282226
0.002825821
0.002827766
0.002827633
0.002828959
0.002833012
0.002838006
0.002839113
0.002833235
0.00282058
0.00280482
0.002784525
0.002756281
0.002716334
0.002663462
0.002600306
0.002534873
0.002476461
0.002436211
0.002416688
0.002429634
0.00245761
0.002471098
0.0024705
0.002467097
0.002461203
0.002452064
0.00244616
0.002452719
0.00247698
0.002503075
0.002508883
0.002481085
0.00241282
0.002288049
0.002101718
0.002403029
0.002673767
0.002785438
0.002836983
0.002857282
0.0028612
0.002861894
0.002861239
0.002861532
0.002861797
0.00285939
0.002850667
0.002833848
0.002809457
0.002780427
0.002747623
0.002709319
0.002663184
0.002608472
0.002550169
0.002495384
0.002450624
0.002420187
0.002414401
0.002438992
0.002469443
0.002476778
0.002469332
0.002461767
0.002454717
0.002442894
0.002427788
0.002419803
0.00243443
0.002463408
0.002480863
0.002468094
0.002413202
0.002291833
0.002098327
0.00238172
0.002673563
0.002786904
0.002836636
0.002854946
0.002857648
0.002856873
0.002855643
0.002853288
0.002847476
0.002835923
0.00281678
0.002790315
0.002757692
0.002721754
0.002683031
0.002642172
0.00259836
0.002553365
0.002512229
0.002477632
0.002449615
0.0024355
0.00244517
0.002471892
0.002484866
0.002481532
0.002472526
0.002466811
0.002462489
0.002451773
0.00243207
0.002410969
0.002409793
0.002432972
0.002454587
0.002452056
0.002410664
0.002300408
0.002112527
0.002345479
0.002646843
0.002759027
0.002804982
0.002821349
0.002825705
0.002827288
0.002826062
0.002820418
0.002808387
0.002788962
0.002762122
0.002729389
0.002692239
0.002653182
0.002613951
0.002576566
0.00254249
0.002514135
0.002493295
0.002478164
0.002469506
0.002473699
0.002488129
0.00250453
0.002506162
0.002498365
0.002489336
0.002484969
0.002482034
0.002472472
0.002452477
0.002426663
0.002411957
0.002421639
0.002438575
0.002440175
0.002407538
0.002303563
0.002111725
0.002289084
0.002588577
0.002700218
0.002745874
0.002767224
0.002779381
0.002786947
0.002787657
0.002780441
0.002764984
0.002741917
0.002711849
0.002676267
0.002637859
0.002599748
0.002564617
0.002534325
0.002510492
0.002495552
0.002490486
0.002491644
0.002497324
0.002507453
0.002519754
0.00253092
0.002530036
0.002522614
0.002514881
0.002510414
0.002506859
0.002498888
0.002483995
0.002463665
0.002445159
0.002439564
0.002445232
0.002444286
0.002414199
0.00231092
0.002105935
0.002226868
0.002502875
0.002609523
0.002664038
0.002701464
0.002727709
0.002743911
0.002748796
0.00274356
0.002729793
0.002708689
0.002680356
0.00264689
0.002611254
0.002576488
0.002545626
0.002520749
0.002503245
0.002495704
0.002497652
0.002505478
0.002516918
0.00252824
0.002537822
0.00254773
0.002549065
0.002544758
0.002539434
0.00253582
0.002533086
0.002528543
0.002520068
0.002506819
0.002490323
0.002476896
0.002471248
0.002463738
0.002431481
0.002330036
0.00212059
0.002224477
0.002423599
0.002506813
0.002576791
0.002633963
0.002675985
0.002702555
0.002714651
0.002715533
0.002707818
0.002691183
0.002667021
0.002637704
0.002606339
0.002576609
0.002551776
0.002531927
0.002516333
0.002508146
0.002508036
0.002515223
0.002526756
0.002538332
0.002547585
0.002554897
0.002559785
0.002559676
0.002557792
0.002556718
0.002556413
0.002555709
0.002552463
0.002544819
0.002532535
0.002518513
0.002507129
0.002492614
0.002454093
0.002350113
0.002136638
0.002280802
0.002463541
0.002496022
0.002537132
0.00259106
0.002639424
0.002673072
0.002692175
0.002699857
0.002697376
0.002685819
0.002667423
0.00264401
0.002617955
0.002592679
0.002571733
0.002554718
0.002539439
0.002527047
0.002520763
0.002522846
0.002531347
0.002541944
0.00255094
0.002557506
0.002561991
0.002565899
0.002568076
0.002570321
0.002572981
0.002575437
0.002576049
0.002572794
0.002565219
0.002554354
0.002542165
0.002523845
0.002480812
0.002376333
0.002159883
0.002353261
0.002550667
0.002571986
0.002588784
0.002616587
0.002647064
0.002672149
0.002688946
0.00269695
0.002695663
0.002686765
0.002671692
0.002652089
0.002629811
0.002607993
0.002589977
0.002574644
0.002559495
0.002544492
0.00253287
0.002529646
0.00253455
0.002542824
0.002550419
0.002556124
0.00256057
0.002563814
0.002569279
0.002574952
0.002580641
0.00258597
0.00259003
0.002591029
0.002588319
0.002581899
0.002571361
0.002551934
0.00250734
0.002404307
0.002186942
0.002404027
0.002619082
0.002641643
0.002644016
0.002652148
0.002666511
0.002680649
0.002690812
0.002693905
0.002690167
0.002680643
0.002666622
0.002649497
0.00263236
0.002615968
0.002601733
0.002588754
0.002573784
0.002558306
0.002544928
0.002537818
0.002538352
0.002542911
0.00254787
0.002552017
0.002555603
0.002558244
0.002562047
0.002569942
0.002578985
0.002587443
0.002595027
0.002600301
0.002602795
0.002601548
0.00259406
0.00257572
0.002531775
0.002431181
0.002213778
0.002429593
0.002648616
0.002675521
0.00267131
0.002668339
0.002672516
0.002678579
0.002682489
0.002680515
0.002673203
0.002662057
0.002648509
0.002634684
0.00262156
0.002609911
0.002601049
0.002593107
0.002582071
0.002568904
0.00255642
0.002547881
0.002543893
0.002543288
0.002543887
0.00254476
0.002546061
0.002547794
0.002550056
0.002556475
0.002568684
0.002580666
0.002591925
0.002601905
0.002610105
0.002614035
0.002610157
0.002593912
0.002551597
0.002452587
0.002231898
0.002434389
0.002648894
0.002679894
0.002672804
0.002662464
0.002659658
0.00266045
0.002660579
0.002656128
0.002646885
0.002635228
0.002623311
0.002611983
0.002601781
0.002594893
0.002591668
0.002589586
0.002584234
0.002576086
0.002566106
0.002557912
0.002550923
0.002544825
0.002539919
0.002536142
0.002533577
0.002532491
0.00253331
0.00253811
0.002552019
0.002567823
0.002582775
0.002597738
0.002611914
0.002620942
0.002620416
0.002606548
0.002566473
0.002469161
0.00224194
0.00242699
0.002633954
0.002669223
0.002661682
0.00264421
0.002634223
0.00262915
0.002626529
0.002622649
0.002614919
0.002605683
0.002597642
0.002590505
0.002584433
0.002581768
0.002581886
0.002583241
0.002583397
0.002580024
0.002573555
0.002566321
0.002557688
0.002547471
0.002536949
0.002527891
0.002520877
0.002515722
0.00251344
0.002517994
0.002532864
0.002552257
0.002570927
0.00259122
0.002610733
0.002623904
0.00262608
0.002614166
0.002576328
0.002481609
0.00225172
0.002414647
0.002615544
0.002655279
0.002649332
0.00262477
0.002605478
0.002591407
0.002583785
0.002581874
0.002580236
0.002576937
0.002574264
0.002572465
0.002571583
0.002572138
0.002573461
0.002576363
0.002579638
0.002580578
0.002578069
0.002572101
0.002562557
0.002549824
0.002535269
0.002521181
0.002509669
0.002501041
0.002495994
0.002500085
0.002517109
0.002538539
0.002560667
0.002585677
0.00260854
0.002624254
0.002628137
0.002617369
0.002580925
0.00248889
0.002260679
0.002400164
0.00259761
0.002644048
0.002642443
0.002615931
0.002585335
0.002559708
0.002541963
0.002538003
0.002542643
0.002548009
0.002552698
0.002556959
0.002561374
0.002565542
0.002568044
0.002570685
0.00257471
0.002578
0.002578762
0.002574822
0.002565267
0.002550716
0.002533942
0.002517445
0.002502683
0.002491251
0.002484761
0.002490068
0.002507803
0.002530372
0.002554848
0.002582482
0.002606518
0.002622889
0.002627152
0.002616233
0.002579637
0.002488196
0.002258784
0.002382016
0.002578146
0.002635081
0.002642153
0.002620068
0.002585588
0.002549264
0.002519695
0.002503656
0.002505048
0.002517047
0.002530501
0.002541695
0.002550849
0.002558248
0.002562557
0.002564799
0.002568251
0.002572268
0.002574561
0.002572344
0.002565572
0.002553464
0.002537096
0.002519133
0.002501856
0.002488701
0.002483105
0.002489906
0.002507216
0.002529187
0.002554752
0.002582124
0.002605225
0.002620552
0.002623888
0.002611462
0.0025732
0.00247999
0.002247168
0.002357738
0.002553098
0.002623616
0.002643543
0.002632831
0.00260391
0.002567709
0.002530529
0.002499663
0.002484946
0.002489765
0.002506895
0.002523856
0.002536852
0.002546397
0.002552185
0.002555145
0.002558343
0.002562363
0.00256496
0.002564364
0.002562771
0.002552903
0.002539143
0.002523549
0.002507632
0.002494953
0.002490449
0.002497235
0.002512872
0.002533789
0.002558903
0.002583957
0.00260466
0.002617753
0.002619276
0.002604302
0.002563427
0.002467294
0.002232639
0.002325892
0.002520604
0.002605191
0.002640011
0.002645242
0.0026292
0.002601174
0.002565818
0.002529025
0.002498529
0.002483821
0.002489306
0.002504905
0.002518369
0.002529194
0.002536461
0.002540406
0.002542988
0.002545821
0.002548964
0.002552896
0.002554418
0.002547182
0.002537329
0.002526502
0.002515767
0.002506407
0.002503048
0.002509296
0.002523187
0.002542591
0.002565385
0.002587093
0.002604534
0.002614885
0.002614274
0.002596446
0.002552814
0.002453845
0.002221117
0.0022869
0.002481847
0.002579306
0.0026284
0.002650159
0.002649421
0.002633367
0.002605351
0.002570802
0.002535317
0.002506175
0.002490864
0.002492153
0.002500646
0.002509026
0.002515511
0.002518804
0.002520082
0.002521718
0.002525516
0.002535006
0.002539827
0.002536632
0.002532124
0.002527781
0.0025225
0.002517503
0.002516989
0.002523066
0.002535499
0.002553057
0.002572695
0.00259067
0.002604481
0.002612125
0.002609664
0.002589712
0.002543935
0.002442505
0.002215028
0.002241918
0.002439203
0.00254788
0.002608715
0.002644482
0.002657701
0.002654613
0.002637297
0.002609095
0.002575395
0.002540879
0.002512371
0.002495272
0.002489745
0.002488876
0.002488442
0.002488588
0.002487887
0.002488472
0.002493606
0.002508306
0.002517348
0.002519855
0.002522334
0.002525064
0.002525524
0.002525376
0.002527875
0.002534653
0.002546484
0.002562324
0.002578905
0.002593246
0.002603738
0.002609115
0.00260558
0.002584719
0.002537829
0.002433938
0.002214086
0.002190151
0.002394499
0.002512993
0.002581932
0.002628027
0.00265306
0.002662135
0.00265669
0.00263772
0.002609056
0.002574897
0.002539833
0.00250973
0.002487846
0.002472704
0.002459757
0.002451311
0.002446732
0.002445993
0.002453168
0.002472262
0.002485437
0.00249451
0.002504787
0.002514921
0.002521553
0.002526355
0.0025323
0.002540993
0.002553154
0.002567647
0.002581651
0.002592758
0.002600447
0.002604134
0.002600403
0.002580268
0.002533459
0.002428219
0.002217542
0.002131406
0.002349649
0.002476504
0.002549737
0.002602178
0.002636724
0.0026569
0.002663022
0.002654647
0.0026333
0.002602625
0.002566045
0.002528054
0.002492692
0.00246163
0.00243457
0.002413575
0.002402436
0.002399407
0.002409668
0.002430574
0.002447125
0.002461494
0.00247858
0.002494808
0.002507459
0.002517881
0.002528093
0.002539523
0.002552686
0.00256635
0.002578081
0.002586248
0.002591087
0.002592834
0.002588318
0.002568074
0.002520813
0.002414471
0.002213641
0.002073785
0.002310174
0.002442958
0.002516977
0.002571682
0.002612578
0.002642204
0.002659068
0.002660807
0.002647827
0.002622477
0.002587648
0.002546277
0.002501777
0.002457019
0.002415981
0.00238492
0.002366222
0.002360154
0.002372933
0.002392128
0.00240769
0.002423447
0.002445065
0.002466318
0.002484514
0.002500267
0.002514875
0.002529095
0.002543182
0.002556058
0.002565546
0.002570236
0.002570741
0.002567872
0.002558613
0.002534477
0.00248412
0.00237489
0.002185148
0.0020401
0.0022819
0.002417419
0.00249037
0.002545007
0.002588916
0.002625144
0.002650211
0.002659881
0.002653987
0.002633808
0.002601566
0.002559593
0.002510385
0.002458561
0.002411149
0.002373985
0.002350318
0.002344467
0.002356211
0.002369832
0.002380384
0.002393434
0.002414233
0.00243693
0.002458438
0.002477655
0.002494783
0.002510327
0.002524574
0.002536292
0.002542918
0.002542528
0.002535702
0.002523275
0.002503154
0.002469375
0.002411069
0.002298704
0.00212915
0.002038052
0.002263858
0.002401348
0.002475818
0.002529673
0.002573834
0.002612468
0.002641293
0.002655249
0.002653448
0.002636506
0.002605683
0.002563374
0.002513263
0.002461957
0.002414034
0.002376211
0.00235407
0.002349803
0.002356755
0.002367028
0.002375071
0.002383228
0.00239632
0.002413507
0.002433198
0.002452717
0.002470255
0.0024854
0.002498458
0.002508068
0.002510856
0.002503856
0.002486704
0.002460445
0.002427551
0.002385988
0.002328368
0.002220865
0.002063429
0.002077067
0.00226739
0.00239805
0.002474287
0.002527001
0.002569909
0.002607414
0.002635535
0.002649796
0.002648603
0.002632113
0.002601447
0.002558736
0.002509133
0.002458823
0.002413986
0.002380394
0.002363663
0.002358908
0.002362378
0.002371884
0.002381246
0.002386395
0.0023912
0.002400269
0.002412937
0.002427162
0.002441566
0.002454629
0.002465324
0.002471596
0.002469848
0.002456576
0.002430878
0.002394663
0.002354219
0.002315752
0.002268614
0.00217131
0.001998281
0.002132417
0.00228111
0.002394259
0.002470795
0.002525528
0.002570019
0.002606777
0.002632876
0.002645237
0.002642489
0.002624707
0.002593203
0.002550604
0.002501651
0.002453159
0.002412435
0.002385218
0.00236968
0.002363613
0.002366799
0.002378547
0.002390412
0.002396066
0.002400458
0.002405858
0.002410916
0.002414593
0.002419337
0.002425109
0.002429819
0.002430247
0.002422912
0.002405222
0.002377832
0.002342137
0.002304847
0.002268358
0.002222822
0.002135548
0.001961702
0.002154458
0.002275014
0.00237103
0.002450681
0.00251367
0.002564276
0.002603121
0.002628619
0.002639344
0.002634856
0.002615638
0.002583431
0.002541508
0.002495152
0.002451212
0.002415886
0.002390684
0.002372942
0.002364653
0.00236964
0.002386175
0.002403952
0.002417282
0.002425856
0.002431035
0.002431084
0.002426278
0.002418997
0.002412004
0.002404149
0.00239275
0.002375951
0.002354913
0.00233274
0.002304951
0.002269787
0.002220401
0.002165988
0.002095826
0.001944481
0.002144854
0.002241075
0.00232327
0.002408302
0.0024842
0.002543922
0.002587597
0.002614745
0.002625445
0.002620451
0.002600883
0.002569011
0.002528625
0.002485597
0.002446672
0.00241613
0.002392265
0.002371127
0.002361015
0.002371348
0.002397125
0.002424917
0.002449084
0.002467605
0.00247869
0.002479427
0.002471184
0.002454728
0.002433939
0.002407485
0.002375459
0.002340056
0.002311697
0.002295475
0.002276795
0.002241323
0.0021782
0.002112595
0.002046952
0.001911545
0.002127351
0.002195379
0.002261433
0.002348672
0.002436498
0.002503729
0.002552651
0.002582582
0.002594773
0.002591053
0.002573112
0.002543774
0.002506494
0.002466846
0.002431116
0.002402434
0.00237862
0.002356686
0.00234951
0.002369041
0.002402991
0.002435791
0.00246679
0.002492446
0.002509951
0.002515492
0.002513324
0.002500141
0.002474137
0.002435111
0.002383292
0.002323062
0.002278471
0.00226138
0.002245924
0.002208556
0.002133729
0.002070316
0.002007059
0.001879963
0.002102425
0.002146712
0.00219246
0.002276602
0.002369125
0.002438582
0.002489869
0.002521419
0.002535351
0.002534567
0.002520706
0.002496267
0.002464013
0.002428758
0.002395816
0.002367844
0.002344829
0.002329669
0.002329786
0.002352812
0.002384874
0.002415624
0.002447745
0.002478853
0.002502968
0.002514822
0.002522476
0.002519129
0.002497411
0.002456504
0.002394661
0.002315834
0.002258161
0.002235194
0.002215722
0.002168495
0.002077733
0.002045219
0.001998455
0.00190221
0.002052955
0.002092028
0.002113714
0.00219523
0.002282569
0.002345871
0.002393509
0.002423084
0.002437176
0.002440225
0.00243248
0.002415424
0.002390657
0.002362312
0.002334761
0.002310077
0.002293178
0.002286409
0.002290644
0.00230677
0.002330062
0.002354883
0.002383875
0.002417179
0.002445811
0.002463795
0.002484241
0.002493887
0.002480849
0.002444281
0.002383476
0.002299874
0.00224236
0.002221516
0.002201549
0.002149299
0.002059633
0.00201634
0.001976237
0.001886028
0.001958049
0.002014843
0.002016173
0.002082118
0.002147763
0.002192511
0.002228995
0.002252204
0.002263712
0.002270061
0.002269005
0.002260185
0.002243525
0.002223736
0.00220597
0.002196857
0.002201746
0.002210426
0.002215057
0.002218502
0.002225435
0.002240057
0.002261433
0.002292197
0.00231711
0.002348163
0.002387167
0.002407065
0.002403635
0.002373044
0.002322937
0.002250077
0.002203637
0.002189447
0.002172682
0.002122106
0.002032439
0.001953654
0.001893968
0.001781859
0.001800212
0.001877556
0.001845183
0.001897752
0.001934917
0.001958005
0.001981858
0.001997958
0.002003264
0.002011626
0.002015903
0.002014832
0.002008413
0.002003413
0.002004125
0.002013688
0.002033501
0.002051017
0.002051924
0.002040027
0.002023616
0.002028247
0.00204968
0.002081321
0.002106175
0.00216158
0.002206567
0.002217024
0.002209274
0.002172856
0.002131219
0.002074314
0.002045178
0.002041558
0.002033993
0.001995134
0.001918578
0.001836679
0.001743769
0.001584892
0.002367482
0.002290862
0.002301313
0.002173324
0.002154618
0.002085057
0.002098595
0.002155491
0.002222047
0.002225263
0.002243136
0.002258229
0.002226688
0.002187103
0.002171657
0.002178033
0.002187818
0.002194254
0.0022096
0.002226761
0.002246989
0.002269865
0.002293845
0.00231102
0.002334519
0.002364371
0.002405434
0.002413574
0.002397618
0.002392707
0.002387819
0.002386269
0.002382956
0.002377429
0.002354382
0.002282133
0.002193769
0.002136984
0.002074111
0.001995205
0.002296098
0.00353407
0.004379125
0.004823858
0.004986551
0.005217314
0.005376939
0.005378444
0.0054927
0.005737478
0.005969246
0.0061351
0.006298902
0.006462012
0.006566994
0.006634579
0.006692777
0.006729468
0.006762247
0.006772355
0.006710027
0.006535354
0.006176252
0.005668512
0.005018422
0.004404556
0.004081194
0.004189088
0.004334719
0.004375944
0.004465161
0.004709309
0.005049689
0.00526551
0.005320374
0.005331459
0.005260261
0.004965942
0.004035097
0.002059085
0.002277543
0.00425088
0.006007236
0.006974866
0.007468853
0.007874842
0.008178736
0.008457211
0.008775871
0.009119192
0.009420353
0.009667506
0.00987436
0.01004032
0.01018672
0.01029548
0.01033817
0.01031982
0.01026831
0.01018144
0.01001138
0.009694448
0.009124176
0.00825881
0.007170432
0.006171135
0.005618887
0.005761664
0.005999283
0.006109019
0.006318439
0.006775974
0.0073853
0.007826132
0.007951389
0.007838953
0.007464687
0.006642491
0.004982477
0.002099017
0.00225088
0.004799995
0.00702196
0.008250986
0.008943332
0.009439735
0.009808315
0.01013418
0.01046575
0.01081619
0.01117051
0.01148859
0.01175022
0.01195356
0.01209613
0.01216445
0.01214476
0.01205112
0.0119134
0.01174487
0.01151097
0.01113675
0.01053499
0.009639583
0.008637419
0.007810419
0.007383766
0.00752227
0.007715374
0.007782663
0.007926821
0.008278219
0.008821536
0.009285006
0.009466083
0.009377038
0.008920429
0.007820399
0.005655708
0.00218374
0.00226662
0.00523562
0.007623036
0.008937718
0.00972422
0.01022378
0.01056393
0.01085508
0.01117188
0.01154647
0.01196164
0.01234448
0.0126373
0.01283267
0.01293264
0.01292961
0.01281656
0.0126028
0.01233708
0.01207369
0.01183148
0.01160072
0.01118297
0.01050155
0.009836881
0.009411988
0.009363214
0.009433816
0.009462083
0.009416815
0.009406902
0.009569259
0.009901715
0.01022139
0.01035844
0.01026328
0.009759553
0.008480962
0.005960715
0.002151096
0.002298767
0.005420013
0.007769798
0.009149971
0.01002656
0.01048874
0.01077773
0.01107527
0.01144226
0.01188576
0.01236176
0.01277883
0.01306581
0.01321462
0.01323067
0.01310408
0.01283902
0.01246237
0.01210593
0.01184143
0.01177482
0.01180354
0.01160666
0.01120796
0.01095478
0.01105427
0.01124183
0.01119332
0.01108239
0.01095364
0.01082177
0.01075943
0.01080115
0.01087569
0.01089619
0.01074561
0.01018841
0.00879706
0.006044822
0.00214449
0.002323974
0.005284794
0.007525656
0.008957288
0.009915115
0.01040029
0.01075042
0.01117183
0.01166218
0.0121907
0.01269744
0.01310261
0.01333801
0.01339312
0.01328084
0.01302237
0.01262159
0.01218235
0.01185286
0.01176711
0.01192181
0.01211266
0.01207563
0.01206593
0.01234339
0.01272556
0.01280378
0.01260502
0.01241137
0.01224841
0.01206293
0.01183921
0.01159388
0.01137033
0.01121525
0.01099016
0.01038235
0.008952389
0.006124438
0.002194466
0.002340923
0.005064519
0.007186739
0.008590998
0.009510196
0.01017116
0.01073036
0.01134801
0.01198065
0.01257751
0.01308565
0.01344939
0.01361494
0.01356405
0.01333339
0.01296214
0.01250722
0.01210653
0.01194245
0.01206509
0.01236404
0.01261067
0.01281275
0.01320996
0.01375152
0.01392536
0.01379297
0.01356906
0.01336342
0.01317852
0.01295934
0.0126598
0.01224749
0.01175503
0.01138241
0.0110694
0.01042273
0.008968996
0.006101254
0.002176277
0.002343183
0.004819818
0.006755576
0.008063582
0.009033653
0.009924141
0.01079605
0.0116323
0.01239967
0.01305613
0.01356384
0.01388401
0.01397372
0.01383231
0.01352751
0.01314173
0.01274602
0.01246841
0.01243578
0.0126273
0.01291691
0.01323909
0.0137129
0.01419308
0.01447804
0.01448205
0.01436163
0.01418488
0.01400606
0.01382815
0.01360465
0.01327819
0.01279805
0.01216093
0.01156199
0.01109626
0.01041089
0.008927881
0.005995575
0.002204724
0.002331838
0.004534229
0.006211523
0.007457155
0.008593357
0.009745889
0.01086128
0.01187673
0.01275206
0.01346315
0.01398905
0.01431283
0.01442681
0.01435674
0.01414767
0.01384062
0.01348621
0.013204
0.01311967
0.0132215
0.01344425
0.01380404
0.01426844
0.01466504
0.01476817
0.01475037
0.01466798
0.01454965
0.01441843
0.01426792
0.01405924
0.01374332
0.01326768
0.01260111
0.01185077
0.01118614
0.01039744
0.008890729
0.005961725
0.002214035
0.002325439
0.004209928
0.005628388
0.006886407
0.00822993
0.009625034
0.0109351
0.01209524
0.01308213
0.01388061
0.01447826
0.01488087
0.01510682
0.01517122
0.01507992
0.01482736
0.01444511
0.01405814
0.01380039
0.01371159
0.01384756
0.014172
0.01455063
0.01484343
0.01487139
0.01484834
0.01479936
0.01473341
0.01465277
0.01454172
0.0143636
0.01407112
0.01361844
0.01297764
0.01218419
0.01134991
0.01040595
0.008856735
0.005948537
0.002231427
0.002352517
0.003877184
0.005102614
0.006420251
0.007940328
0.009526416
0.0110107
0.0123224
0.01343213
0.01432026
0.01499187
0.01547803
0.01579737
0.01594923
0.01592402
0.01570548
0.01531914
0.01486002
0.01444484
0.01422708
0.01427206
0.01445678
0.0146758
0.0148584
0.01485728
0.01482779
0.01480355
0.01478075
0.01474683
0.01467862
0.01453786
0.01427623
0.01385031
0.01323681
0.01244291
0.01151113
0.01042067
0.00881159
0.005943043
0.002256824
0.00237482
0.003660911
0.00472484
0.006069835
0.007703386
0.009436218
0.0110797
0.01253534
0.01375015
0.01470685
0.01545006
0.01601437
0.01640578
0.01661865
0.0166408
0.01647439
0.01614983
0.01570429
0.01522561
0.01487967
0.01471717
0.01467383
0.01469371
0.0147474
0.01475738
0.01472337
0.0147174
0.01473127
0.01473961
0.01471347
0.01461232
0.01438456
0.01398465
0.01338899
0.01259556
0.01161261
0.01042281
0.008759
0.005940922
0.00227631
0.002381236
0.003669311
0.004678666
0.005993857
0.007651258
0.009471288
0.01123382
0.01279667
0.01408472
0.01511174
0.01592942
0.01656217
0.01701315
0.01727497
0.01733692
0.01720792
0.01691454
0.01647282
0.01593699
0.01541887
0.01501828
0.01476798
0.01463228
0.0145712
0.014546
0.01455077
0.01457301
0.01462168
0.01467004
0.01468218
0.01461722
0.0144208
0.01404333
0.01345861
0.01265874
0.0116407
0.01038523
0.008685709
0.005927257
0.002297558
0.002388626
0.003847645
0.005001217
0.006369761
0.008042662
0.009876621
0.01166385
0.01324177
0.0145351
0.01558294
0.01642405
0.0170757
0.01753015
0.01777829
0.01782009
0.01767351
0.01737183
0.01693114
0.0163663
0.01573775
0.01515589
0.01474268
0.01450862
0.0143763
0.01429186
0.01427958
0.01436408
0.01447634
0.01456688
0.01461189
0.01457602
0.01440472
0.01404516
0.01346828
0.01265868
0.01161317
0.01031451
0.008593632
0.005897831
0.002318152
0.002387388
0.004160118
0.005544891
0.007009706
0.008713772
0.01051942
0.01224289
0.01373556
0.01496489
0.01596536
0.01677005
0.01738157
0.01778761
0.017965
0.01793499
0.01775733
0.01746794
0.01708279
0.01654318
0.01587881
0.01519978
0.01466707
0.01435367
0.0141767
0.01405003
0.01399845
0.01408103
0.01427652
0.01444906
0.01452404
0.01450868
0.01435465
0.01400846
0.01343707
0.01262205
0.01155873
0.01022719
0.008488643
0.005839447
0.002335926
0.002390753
0.004558282
0.006225639
0.007746097
0.00942899
0.01116412
0.01278207
0.01415289
0.01528056
0.01619733
0.01692391
0.01745872
0.01778399
0.01789371
0.01783701
0.01765549
0.01738133
0.01703344
0.01654533
0.01590799
0.01521034
0.01461339
0.01422421
0.01400379
0.01386055
0.0137878
0.01384375
0.01405424
0.01432155
0.01443877
0.01443542
0.01428959
0.0139496
0.01337944
0.01256263
0.01149116
0.0101417
0.008371204
0.005753943
0.002348195
0.00239584
0.005010159
0.006964196
0.00855007
0.01014407
0.01176088
0.01325832
0.01451512
0.01553381
0.01634702
0.01696912
0.01739921
0.01763278
0.01769063
0.01760921
0.01744012
0.01719447
0.01687404
0.01643839
0.01588218
0.01524685
0.01464933
0.01419737
0.01391558
0.0137543
0.01368229
0.01372387
0.013915
0.01420753
0.01437737
0.01437649
0.01422873
0.01388683
0.01331244
0.01248953
0.01141699
0.01005729
0.008248109
0.005657211
0.002356407
0.002401158
0.005480267
0.007713702
0.009366578
0.01084488
0.01229329
0.01366159
0.01481999
0.01574221
0.01644808
0.01694831
0.01725948
0.01740129
0.0173851
0.01725024
0.01708118
0.01687932
0.01661308
0.01626364
0.01583018
0.01532269
0.01479646
0.01433302
0.01399395
0.01378963
0.01371036
0.01375155
0.01391553
0.01418029
0.01436159
0.01434917
0.01418934
0.01383846
0.0132559
0.01242496
0.01135217
0.009984881
0.00813187
0.005563375
0.002360504
0.002406366
0.005983232
0.008456196
0.01010869
0.01152041
0.012762
0.01397244
0.01503573
0.01587582
0.01646823
0.01685732
0.01707946
0.01715417
0.01709041
0.01690593
0.01667765
0.01646037
0.01625704
0.01602682
0.0157399
0.01539052
0.01499816
0.01460132
0.01425689
0.01401468
0.01390439
0.01393255
0.01406526
0.01426701
0.01439909
0.01436345
0.01418366
0.01381896
0.0132278
0.01239175
0.01131349
0.009936952
0.008039325
0.005479454
0.002359764
0.002410941
0.006447864
0.009114203
0.01077143
0.01206902
0.013175
0.01417698
0.01510402
0.01585459
0.0163738
0.01669509
0.01685762
0.01688897
0.01680132
0.0166007
0.01631437
0.01602635
0.01583028
0.0157249
0.01560107
0.01540845
0.01516457
0.01489223
0.0146141
0.01437962
0.01423597
0.01422458
0.01433699
0.01445499
0.01449249
0.01441761
0.0142144
0.01383606
0.01324204
0.01240917
0.01132414
0.009933514
0.007990861
0.005422756
0.002348274
0.002411481
0.006805519
0.009615153
0.01128135
0.01251363
0.01348163
0.01430399
0.01500977
0.01563539
0.01612926
0.01643575
0.01658024
0.01659147
0.01648945
0.01628888
0.01599477
0.01565586
0.01541995
0.01539231
0.0154225
0.01538005
0.01523404
0.01504166
0.01486762
0.01472467
0.0146135
0.0145676
0.01460273
0.0146305
0.01460317
0.01449735
0.01427518
0.01389148
0.01330761
0.01249227
0.01141056
0.01000234
0.008015515
0.005394005
0.002327041
0.002405076
0.007022259
0.009943275
0.01163711
0.01283546
0.01372586
0.01438294
0.01485871
0.01526098
0.01565913
0.01599651
0.01618914
0.01622801
0.01612883
0.01593199
0.01566392
0.01534309