/*--------------------------------*- C++ -*----------------------------------*\
| =========                 |                                                 |
| \\      /  F ield         | OpenFOAM: The Open Source CFD Toolbox           |
|  \\    /   O peration     | Version:  2212                                  |
|   \\  /    A nd           | Website:  www.openfoam.com                      |
|    \\/     M anipulation  |                                                 |
\*---------------------------------------------------------------------------*/
FoamFile
{
    version     2.0;
    format      ascii;
    arch        "LSB;label=32;scalar=64";
    class       volScalarField;
    location    "1000";
    object      p;
}
// * * * * * * * * * * * * * * * * * * * * * * * * * * * * * * * * * * * * * //

dimensions      [1 -1 -2 0 0 0 0];

internalField   nonuniform List<scalar> 
96000
(
0
0.0006017568
0.001818582
0.002633012
0.003230796
0.003631564
0.003599268
0.003377009
0.0030388
0.002923336
0.003096243
0.003439065
0.003831853
0.004136783
0.004294229
0.004336403
0.004206219
0.004118221
0.004024636
0.003781671
0.003511081
0.003297152
0.00299599
0.002338137
0.002093224
0.002096935
0.002137118
0.002211053
0.002190897
0.002229023
0.002259052
0.002213662
0.002051027
0.001937475
0.00197095
0.002458616
0.003260828
0.004003262
0.00443507
0.004370442
-0.0003041013
0.000796114
0.002087892
0.002877223
0.003280399
0.003465258
0.003406287
0.003160572
0.00280704
0.002698227
0.002937014
0.003380476
0.003893362
0.004368548
0.004715313
0.00491198
0.004927986
0.004897019
0.004841518
0.004681688
0.00446263
0.004218859
0.003881853
0.003426185
0.00311283
0.003043527
0.003071476
0.00311685
0.002990323
0.002803893
0.002564725
0.002268726
0.001926584
0.001696553
0.001694834
0.002143601
0.002870172
0.003585347
0.004139731
0.004075669
0.0009426894
0.001491866
0.002353291
0.002930542
0.003149942
0.003182943
0.003065913
0.002866163
0.00270118
0.002765867
0.003105316
0.003622547
0.004210056
0.004758263
0.005201246
0.005497337
0.005629548
0.005686163
0.005690144
0.005619909
0.005487345
0.005289412
0.004994734
0.004622563
0.004382365
0.004334703
0.004306021
0.004202811
0.003905559
0.003541827
0.003118044
0.002666932
0.002219674
0.00191176
0.00181847
0.002075032
0.002561959
0.003116587
0.003651422
0.003953926
0.001644615
0.002029
0.002527532
0.002867901
0.002956504
0.002921284
0.002814508
0.002699461
0.002698962
0.00289557
0.003287403
0.003814706
0.004401163
0.004958671
0.005422946
0.005751026
0.005961335
0.006095669
0.006163375
0.006165012
0.006107153
0.005987081
0.005806095
0.005620289
0.005523761
0.00546301
0.00535732
0.005128636
0.004739314
0.004277222
0.003757661
0.003231097
0.002737
0.002364982
0.002158871
0.002189507
0.002377162
0.00263068
0.002950109
0.003052727
0.002027362
0.002286035
0.002574532
0.002770355
0.002809336
0.002782492
0.002741973
0.002762139
0.002885365
0.003136397
0.003515326
0.00397907
0.004468811
0.004928003
0.005317561
0.005624858
0.00585595
0.006024358
0.006138658
0.006206793
0.006235184
0.00622456
0.006191922
0.00616264
0.006171784
0.006109685
0.005980986
0.005722783
0.005345135
0.004895888
0.004391465
0.003881274
0.00339726
0.002996458
0.002707701
0.002566948
0.00252913
0.002535905
0.002632827
0.002723342
0.002260109
0.002412303
0.002612373
0.002770519
0.00284363
0.002886516
0.002929232
0.003018979
0.00317503
0.003403887
0.003699292
0.004038099
0.004389544
0.004716853
0.005000654
0.00523828
0.005430746
0.005588641
0.005721408
0.005840119
0.005952225
0.006051638
0.006138005
0.006240668
0.006311436
0.006288438
0.006202311
0.006018221
0.005747009
0.005404671
0.005005273
0.004578799
0.004148413
0.003747237
0.003396791
0.00311536
0.002880635
0.002616334
0.002398192
0.002277155
0.002344099
0.002479119
0.002696194
0.002910635
0.003090061
0.003248336
0.003385145
0.00351698
0.003652237
0.003797126
0.003956263
0.004126121
0.004298568
0.004459164
0.004603856
0.004732265
0.00484863
0.004965131
0.005091016
0.005232678
0.005393823
0.005567588
0.005755654
0.005952137
0.006062822
0.00613758
0.0061637
0.006122615
0.00601269
0.005834214
0.005593487
0.005298828
0.004959675
0.00459398
0.004220054
0.003852016
0.00347345
0.002967462
0.002400115
0.002007612
0.002337212
0.002526555
0.002841518
0.003184767
0.003515021
0.003802396
0.004022308
0.004170058
0.004251482
0.004282352
0.004282232
0.004266715
0.004247688
0.004231116
0.00422178
0.004222507
0.004237998
0.004280072
0.004360422
0.004487045
0.004668765
0.00491017
0.005201694
0.005437446
0.005609972
0.005798515
0.005966674
0.006096163
0.006170441
0.006181972
0.006122676
0.005982934
0.005757647
0.005455852
0.005099462
0.004703418
0.004235733
0.003567868
0.002669656
0.00189558
0.002306558
0.002579662
0.003041046
0.003549817
0.0040431
0.004453035
0.00473687
0.004881011
0.004895831
0.004807878
0.004650972
0.004457135
0.004254288
0.004063184
0.003895387
0.003755935
0.003651987
0.00359563
0.003605563
0.003701608
0.003904457
0.004220195
0.004571425
0.004812393
0.00505452
0.005352809
0.005672769
0.005976751
0.006240279
0.006444075
0.0065653
0.006579122
0.006469785
0.006249461
0.005948194
0.005549059
0.005014893
0.004209456
0.003012702
0.001710729
0.002276502
0.002649991
0.003270916
0.003941803
0.004579443
0.00509236
0.005424178
0.005557157
0.005508939
0.005316003
0.005022808
0.004672845
0.004304581
0.00394925
0.003628607
0.003353465
0.003132956
0.002981311
0.00292021
0.002976731
0.003160496
0.003458422
0.003802939
0.004113996
0.004453026
0.004868165
0.00532821
0.005792876
0.00622939
0.006605676
0.006886116
0.007037396
0.007047403
0.006937885
0.006708608
0.006327659
0.005752808
0.004853993
0.003520004
0.002067159
0.00225475
0.002701152
0.003473731
0.004285932
0.005034262
0.005622383
0.005987272
0.006110778
0.006014927
0.005742122
0.005343405
0.004869522
0.004366437
0.003873971
0.003423647
0.00303594
0.002722177
0.002491445
0.0023515
0.002318587
0.002430416
0.002682329
0.003021084
0.003400693
0.003845546
0.004373109
0.004955595
0.005555301
0.006134038
0.006652523
0.007071445
0.007359483
0.007504936
0.007508116
0.007352264
0.007005901
0.006404992
0.005433816
0.003968422
0.002322047
0.002295957
0.002849887
0.003663995
0.004528258
0.005327183
0.005958905
0.006345093
0.006466109
0.006344887
0.006026114
0.005563639
0.00501178
0.00442064
0.003834543
0.003290762
0.002816242
0.002427936
0.002126937
0.001905221
0.001794038
0.001838256
0.002030125
0.002350578
0.002769921
0.003284485
0.003891249
0.004564294
0.005265267
0.005953319
0.00658805
0.007131646
0.007552024
0.007819535
0.007920934
0.007840998
0.00752479
0.006913235
0.005881328
0.004299031
0.002434261
0.002434076
0.002994903
0.003827709
0.004712339
0.005487583
0.006109195
0.006489263
0.006605429
0.006478106
0.006148429
0.005667831
0.005089675
0.004463647
0.003836124
0.003247399
0.002727692
0.002295581
0.001948114
0.001678141
0.001517242
0.001494965
0.001617542
0.001891322
0.002304326
0.002840097
0.003482607
0.004204029
0.004964657
0.005724095
0.006441618
0.007077743
0.007598471
0.007972042
0.008169174
0.00815235
0.007868033
0.007262306
0.006201921
0.004558214
0.002595812
0.002544481
0.003096726
0.003937302
0.00477835
0.005516642
0.006106476
0.006462838
0.006569071
0.006445398
0.006128114
0.005663115
0.005100516
0.004487829
0.003869812
0.003284427
0.002758866
0.002310053
0.001937342
0.001641771
0.00144654
0.001373888
0.001440895
0.001662302
0.002039325
0.002559955
0.003199822
0.003926899
0.004704068
0.005490475
0.006246717
0.006933504
0.007515634
0.007963806
0.008234421
0.00827489
0.008027032
0.007441309
0.006388578
0.004716222
0.002627811
0.00273057
0.003256319
0.003980989
0.004736142
0.005408584
0.005936821
0.006253262
0.006347828
0.006237448
0.005953046
0.005534204
0.005024135
0.004465231
0.003896504
0.00335077
0.002852883
0.002417391
0.002047843
0.001749523
0.001538755
0.001437319
0.001469954
0.001650244
0.001980709
0.002452721
0.003051019
0.003745146
0.004496525
0.005267732
0.006020881
0.006718039
0.007322747
0.007801754
0.008117379
0.008212687
0.008019224
0.007480237
0.006489387
0.004869762
0.002737664
0.003020182
0.003472733
0.004033783
0.004642334
0.005181314
0.005611487
0.005871915
0.005954314
0.005869577
0.005641131
0.00529888
0.0048763
0.004406998
0.003921372
0.003446248
0.003005241
0.002610997
0.002268649
0.001986259
0.001777623
0.001665395
0.001675086
0.001821142
0.00210327
0.002511273
0.003035982
0.003658457
0.004344874
0.005060852
0.005771853
0.006441218
0.007033025
0.007514831
0.007852954
0.007994598
0.007868056
0.007415601
0.006544822
0.005114773
0.003283358
0.003386647
0.003722467
0.00406377
0.004464509
0.004832777
0.005145445
0.005346026
0.005423908
0.005381221
0.005230235
0.004988504
0.004677658
0.004320584
0.003939321
0.003556206
0.003193062
0.002860719
0.00256346
0.002312264
0.00212406
0.00201904
0.00201733
0.002132548
0.002365085
0.002703887
0.003139011
0.003660583
0.004248741
0.004874427
0.005509803
0.006119675
0.006669169
0.007130805
0.007476655
0.007657496
0.007605539
0.007269153
0.00658257
0.005469576
0.004168112
0.003747622
0.003944906
0.004066787
0.004232834
0.004400025
0.004571822
0.004701397
0.004775665
0.004784924
0.004726579
0.004602895
0.004421264
0.004192459
0.003930497
0.003651878
0.003378602
0.003121973
0.00288712
0.002685822
0.002536028
0.002453719
0.002452445
0.002542427
0.002725084
0.00299156
0.003330648
0.00373587
0.00420166
0.00471161
0.005244456
0.005769392
0.006251309
0.006671402
0.00700741
0.007215806
0.007242589
0.007049596
0.006595531
0.005872628
0.005075498
0.004072052
0.004133283
0.004045309
0.003976476
0.003934695
0.003956168
0.004006584
0.00407262
0.004132291
0.004167379
0.004164123
0.004115143
0.00401885
0.003880483
0.003710467
0.003531825
0.003357838
0.003198913
0.00306634
0.002973423
0.00292929
0.00294252
0.003017795
0.003154429
0.003346303
0.003585605
0.003869117
0.004196902
0.004573787
0.004984565
0.005405018
0.005800419
0.006159279
0.006461927
0.006678795
0.006780908
0.006745615
0.006543456
0.006204079
0.005809949
0.004395703
0.00432516
0.004032411
0.003736936
0.003489357
0.003360447
0.00332477
0.003373023
0.003472914
0.003591551
0.003700648
0.003778623
0.003811147
0.003793762
0.003731461
0.003644089
0.003551877
0.003471962
0.003419351
0.003400107
0.003412598
0.003455291
0.003527335
0.003626292
0.003748416
0.003889504
0.004051843
0.004237913
0.004468901
0.004747079
0.005051341
0.0053471
0.005622271
0.005860147
0.006059154
0.00622033
0.006335237
0.006374909
0.006359667
0.006261314
0.004759469
0.00455861
0.00406482
0.003555542
0.003108959
0.002831078
0.002708769
0.002728368
0.002851005
0.003032565
0.003232085
0.003417217
0.003564211
0.003658894
0.003699805
0.00370485
0.003694895
0.003692734
0.003724261
0.003789567
0.00387295
0.003957071
0.004033285
0.00410163
0.004164967
0.004222773
0.004279017
0.004340944
0.004424578
0.004567968
0.004743601
0.004917904
0.005078787
0.00521964
0.005374592
0.005571717
0.005814037
0.006067907
0.006313159
0.006425447
0.005178728
0.004854653
0.00417266
0.003462488
0.002826465
0.002396518
0.002176415
0.002151536
0.002273796
0.002491059
0.002753641
0.003021731
0.003264366
0.003459339
0.003598698
0.003695144
0.0037764
0.003856543
0.003968522
0.00411976
0.00427913
0.004411037
0.004500745
0.004551086
0.004571205
0.004563416
0.004531476
0.00448363
0.004440143
0.004455036
0.004491769
0.004522893
0.004543147
0.00456537
0.004656044
0.004864373
0.005201942
0.005629649
0.006076827
0.006351677
0.005649323
0.005217524
0.004368846
0.003477268
0.00266483
0.002082227
0.001747785
0.001653117
0.00174655
0.001969365
0.002266088
0.002590202
0.002904364
0.003184014
0.003419187
0.003611931
0.003785242
0.00395297
0.004143368
0.004373906
0.004606692
0.004791928
0.004906868
0.004951837
0.004943238
0.004888342
0.004790968
0.004656509
0.004512733
0.004402262
0.004295152
0.004173684
0.004042357
0.003937247
0.00395052
0.004145638
0.004540775
0.005095625
0.005693787
0.006106336
0.00615431
0.00563434
0.004646121
0.003599037
0.002630092
0.001903327
0.001447231
0.00126145
0.001297102
0.001493151
0.001790724
0.002139218
0.002498437
0.002842184
0.00315849
0.003443064
0.003707921
0.003968271
0.004237647
0.004537177
0.00484087
0.005085411
0.005233882
0.005289042
0.00527191
0.005190755
0.005049278
0.004853159
0.004629319
0.004405057
0.004161156
0.003894041
0.003617224
0.003389338
0.003318928
0.003478218
0.003891198
0.004519984
0.005220398
0.005740603
0.006658659
0.006071265
0.004976765
0.003806993
0.002709307
0.001854972
0.00127737
0.0009846535
0.000937569
0.001077215
0.001344168
0.00168729
0.002066017
0.002451518
0.002828796
0.003191627
0.003542461
0.003893318
0.004239765
0.004601517
0.004971917
0.005279388
0.005473802
0.005560866
0.00555897
0.005476131
0.005313856
0.005079964
0.004794205
0.004473927
0.00411341
0.003719044
0.003314432
0.002980589
0.002827473
0.002933824
0.003330895
0.003989218
0.004754935
0.0053635
0.007114876
0.006481722
0.005319713
0.004068484
0.002876765
0.001918678
0.001229273
0.0008222768
0.000673297
0.0007310509
0.0009398875
0.001250619
0.00162439
0.002031806
0.002453451
0.002879134
0.003305585
0.003739183
0.004158472
0.004575964
0.005005883
0.005377775
0.005631634
0.005768683
0.00580612
0.005746875
0.005589884
0.005339392
0.005011428
0.004621019
0.004175578
0.003684275
0.003183092
0.00276642
0.002537951
0.002580762
0.002930862
0.003575058
0.00435719
0.00501394
0.007471026
0.006814129
0.005627043
0.004343537
0.003099553
0.002067207
0.001283916
0.0007640041
0.0005027479
0.0004609924
0.0005910497
0.0008483826
0.001196893
0.001607917
0.002059375
0.002534867
0.003024082
0.003528005
0.004015844
0.004486195
0.004966099
0.005402479
0.005718561
0.005917293
0.006010156
0.005992609
0.005860397
0.005618001
0.005280662
0.004860832
0.0043683
0.003816976
0.003257975
0.002783509
0.002491057
0.002465638
0.002746445
0.003339873
0.004094267
0.004754734
0.007646344
0.007006692
0.005850182
0.004588596
0.003339238
0.002264581
0.001409886
0.0007874646
0.0004129925
0.0002637904
0.000303093
0.0004933208
0.000802
0.001201551
0.00166945
0.002184796
0.002727068
0.00328942
0.003837692
0.004359276
0.004885004
0.005376617
0.00575007
0.00600618
0.006156519
0.006194609
0.006112934
0.005915059
0.005608486
0.005202449
0.004703831
0.004134279
0.003553152
0.003045632
0.002702874
0.002609057
0.002807255
0.003321134
0.004009341
0.004631906
0.007541848
0.006970268
0.005921233
0.004733162
0.003528536
0.002452684
0.001558335
0.0008552014
0.0003785316
0.000125478
7.217975e-05
0.0001898084
0.0004511791
0.000830973
0.001308016
0.001854396
0.002443263
0.003057108
0.003656691
0.004231349
0.004801719
0.00532433
0.005726014
0.00602736
0.006243621
0.006358467
0.006357642
0.006236803
0.005996482
0.005640603
0.005174884
0.004624985
0.004049479
0.003527503
0.003143501
0.002977598
0.003079533
0.003484581
0.004065756
0.004610199
0.007164926
0.006693587
0.005799103
0.004721875
0.003603862
0.00257022
0.001671382
0.0009170946
0.0003609767
1.934196e-05
-0.0001178763
-6.920556e-05
0.0001457475
0.0005065712
0.0009914529
0.001563739
0.00219018
0.002841223
0.003483521
0.004111108
0.004708611
0.005233472
0.005657054
0.006014541
0.006303657
0.006506327
0.006602742
0.006580399
0.006433845
0.006158
0.005754661
0.005250668
0.00470039
0.004176987
0.003758633
0.003519949
0.003518162
0.003794083
0.004234785
0.004665241
0.006662777
0.006270321
0.005532304
0.004585843
0.003578746
0.002614675
0.001739237
0.0009660096
0.0003611381
-4.56515e-05
-0.0002512092
-0.0002627332
-9.024269e-05
0.0002520772
0.00074204
0.001335145
0.001987431
0.002662603
0.003336176
0.003994483
0.004601455
0.00512693
0.005587153
0.006000777
0.006361019
0.006649694
0.006845241
0.006930574
0.006890739
0.006710296
0.006385804
0.005939746
0.005421364
0.004897608
0.004442489
0.004127101
0.004012182
0.004148052
0.004444695
0.004757761
0.006082158
0.005746358
0.005144156
0.004355919
0.003483681
0.002611636
0.001786143
0.001027172
0.0004058524
-3.876417e-05
-0.0002922121
-0.0003515069
-0.0002186517
9.81516e-05
0.0005791544
0.001177959
0.001843957
0.002537204
0.003228038
0.003890825
0.00449815
0.005049374
0.005560034
0.006025935
0.006441816
0.006799653
0.007080362
0.007263249
0.007324521
0.007238856
0.006994188
0.00660466
0.00611424
0.005585907
0.005088533
0.004689202
0.004451833
0.004441482
0.004575737
0.004765197
0.005435685
0.005146813
0.004666204
0.00405676
0.003341981
0.002590279
0.00184531
0.001134879
0.0005302497
7.653507e-05
-0.000203047
-0.0002968941
-0.0002009183
7.950508e-05
0.0005253602
0.00109955
0.001755679
0.002448505
0.003141925
0.003812324
0.004444882
0.005038264
0.005597625
0.006105592
0.006567784
0.006977312
0.007317836
0.007565757
0.007696329
0.007681513
0.007498786
0.007149822
0.006672964
0.006123722
0.00556533
0.005061631
0.004689392
0.004508219
0.004429445
0.004438642
0.004713076
0.004482496
0.004139091
0.003725284
0.003186463
0.002585008
0.001955179
0.00133321
0.0007847173
0.0003550323
7.263168e-05
-4.358519e-05
1.653751e-05
0.0002514732
0.0006455444
0.001168904
0.001785234
0.002458703
0.003155314
0.003840217
0.004491345
0.005111323
0.00570864
0.006259879
0.006757441
0.007190476
0.007555481
0.007829084
0.007988529
0.008001514
0.007842385
0.007503069
0.007015432
0.006426701
0.005792427
0.005175447
0.004661296
0.004310255
0.004013575
0.003760425
0.003982276
0.003842148
0.003634755
0.003409592
0.003042934
0.002612067
0.002131676
0.001640577
0.001190545
0.0008213078
0.0005624868
0.0004395776
0.0004699307
0.0006584815
0.0009959874
0.001461554
0.002029301
0.002670583
0.00334712
0.004012804
0.004646393
0.005255829
0.005857286
0.006425737
0.006947736
0.00740168
0.007780678
0.008052605
0.008199407
0.008193502
0.008005667
0.007625523
0.007086362
0.006436407
0.005723428
0.005009631
0.004361689
0.003984445
0.003754135
0.003301344
0.003349002
0.003314822
0.003216989
0.003152826
0.002944844
0.002694856
0.002388561
0.002066934
0.001753523
0.001481113
0.001276528
0.001167999
0.00118023
0.001326175
0.001606423
0.002009675
0.002515972
0.003099004
0.003717476
0.004326545
0.004904828
0.005458786
0.006019567
0.006561202
0.007072354
0.007516891
0.007893715
0.008156973
0.008283291
0.008244412
0.008002063
0.007545526
0.00689836
0.006151663
0.005372269
0.004625612
0.003976649
0.003776277
0.003681596
0.003324958
0.002925247
0.002974802
0.002949876
0.002994584
0.0029261
0.002852699
0.002733465
0.002604174
0.002453614
0.002307403
0.002184101
0.002111487
0.002118799
0.002226202
0.00244586
0.002772761
0.00318769
0.003678985
0.004224942
0.004768967
0.005262835
0.005709272
0.00617507
0.006638323
0.007091024
0.007482723
0.007831085
0.00806755
0.008160042
0.008090161
0.007800413
0.007282847
0.006544906
0.0056616
0.004803087
0.004085152
0.003511692
0.003501923
0.003527689
0.003290917
0.002684806
0.002784411
0.002817757
0.002927792
0.002985263
0.003083487
0.003142777
0.003205068
0.003224178
0.003219482
0.003197433
0.003180117
0.003199772
0.003278429
0.003434923
0.003663043
0.003969456
0.004369793
0.004827807
0.005266724
0.005638002
0.005927553
0.006243349
0.0065736
0.006918421
0.007201034
0.007479604
0.007657572
0.007692543
0.00759636
0.007270384
0.006738906
0.005985722
0.005042679
0.004113019
0.003415451
0.002951915
0.002982654
0.003131657
0.003156286
0.002675614
0.00285537
0.002958887
0.003005487
0.00310594
0.00335155
0.003542936
0.003765804
0.003940294
0.004072896
0.004162219
0.004213852
0.00426114
0.004315267
0.004403336
0.004550638
0.004791481
0.005123199
0.005476424
0.005787751
0.006039841
0.006156076
0.006280468
0.006433429
0.006624187
0.006769564
0.006934084
0.006998598
0.006919444
0.006769244
0.006420797
0.005878676
0.00515023
0.004248566
0.00335455
0.002685497
0.002275167
0.00213494
0.002033025
0.001994722
0.002578176
0.002838181
0.002960127
0.002956093
0.003106029
0.003513003
0.00381115
0.004147593
0.004437233
0.004655444
0.004816874
0.004912639
0.004977592
0.005000464
0.005043123
0.005168881
0.005406554
0.005725874
0.006040916
0.006265991
0.006335474
0.006199777
0.006172653
0.006192331
0.006279039
0.006345399
0.006432477
0.006402429
0.006233384
0.006045079
0.005713719
0.005215135
0.004447368
0.003651628
0.002847243
0.002222008
0.001853993
0.001801371
0.00184579
0.00187284
-9.959605
-9.960002
-9.959368
-9.95906
-9.95894
-9.958886
-9.959153
-9.959408
-9.959662
-9.959812
-9.959655
-9.959305
-9.958873
-9.958529
-9.958258
-9.957959
-9.957758
-9.957668
-9.957839
-9.958154
-9.958464
-9.95877
-9.959251
-9.959733
-9.959525
-9.959121
-9.958707
-9.958539
-9.958731
-9.959081
-9.959496
-9.959895
-9.960293
-9.960493
-9.960555
-9.960196
-9.959646
-9.959227
-9.959041
-9.958826
-9.960472
-9.960046
-9.959549
-9.959294
-9.95927
-9.959385
-9.959687
-9.959975
-9.960242
-9.960293
-9.960021
-9.959555
-9.958976
-9.958422
-9.95796
-9.957581
-9.957291
-9.957181
-9.95729
-9.957486
-9.957734
-9.958024
-9.958395
-9.958687
-9.958648
-9.958345
-9.958077
-9.958091
-9.958521
-9.959044
-9.95958
-9.960094
-9.960573
-9.96085
-9.960905
-9.960546
-9.96005
-9.959568
-9.959211
-9.959226
-9.960013
-9.959974
-9.959682
-9.959525
-9.959572
-9.959761
-9.960086
-9.960354
-9.960472
-9.96036
-9.959991
-9.959456
-9.958841
-9.958245
-9.957704
-9.957252
-9.956939
-9.956795
-9.956788
-9.956843
-9.956948
-9.957109
-9.957326
-9.957478
-9.957436
-9.957294
-9.957208
-9.957475
-9.958051
-9.958684
-9.959325
-9.959927
-9.960459
-9.960783
-9.960896
-9.960683
-9.960309
-9.959865
-9.959417
-9.958935
-9.959888
-9.959901
-9.95977
-9.959729
-9.959818
-9.959991
-9.960222
-9.960406
-9.960453
-9.960288
-9.959918
-9.959387
-9.958767
-9.958163
-9.957628
-9.957198
-9.956893
-9.956707
-9.956605
-9.956551
-9.956532
-9.956546
-9.956573
-9.956545
-9.956476
-9.956422
-9.956526
-9.956938
-9.957551
-9.958219
-9.958885
-9.959506
-9.96004
-9.960409
-9.960615
-9.960597
-9.960443
-9.960192
-9.959884
-9.959648
-9.959911
-9.959921
-9.959838
-9.959833
-9.959896
-9.960011
-9.960153
-9.960243
-9.96022
-9.960044
-9.959715
-9.959269
-9.958762
-9.958263
-9.957816
-9.957448
-9.957168
-9.956959
-9.956798
-9.95666
-9.956533
-9.956415
-9.956292
-9.956169
-9.956066
-9.956097
-9.956313
-9.956701
-9.957219
-9.957787
-9.958359
-9.958894
-9.959369
-9.959744
-9.960015
-9.960134
-9.960135
-9.960046
-9.959894
-9.959616
-9.959875
-9.95988
-9.959804
-9.959766
-9.959749
-9.959773
-9.959826
-9.959852
-9.959812
-9.959678
-9.959449
-9.959147
-9.958805
-9.958466
-9.958158
-9.957894
-9.957673
-9.957481
-9.957298
-9.95711
-9.956912
-9.956711
-9.956507
-9.956316
-9.956217
-9.956291
-9.95646
-9.956704
-9.957034
-9.95741
-9.957798
-9.958173
-9.958525
-9.958848
-9.959137
-9.959357
-9.959526
-9.959689
-9.959808
-9.959649
-9.959807
-9.95978
-9.95965
-9.959514
-9.959376
-9.959281
-9.959243
-9.959232
-9.959217
-9.959173
-9.95909
-9.958972
-9.958829
-9.958684
-9.958545
-9.958414
-9.958287
-9.958151
-9.957994
-9.957808
-9.957594
-9.957362
-9.957126
-9.956928
-9.956838
-9.956832
-9.956829
-9.956869
-9.956964
-9.957096
-9.957245
-9.957408
-9.95759
-9.957804
-9.958059
-9.958336
-9.958668
-9.959108
-9.959553
-9.959707
-9.959743
-9.959614
-9.959367
-9.959086
-9.958805
-9.958589
-9.958474
-9.958451
-9.958491
-9.958565
-9.958649
-9.958728
-9.958796
-9.958858
-9.958907
-9.958936
-9.958935
-9.958893
-9.958803
-9.958662
-9.958475
-9.958264
-9.958075
-9.9579
-9.957719
-9.957533
-9.957333
-9.957149
-9.956991
-9.956856
-9.956743
-9.956664
-9.956637
-9.956694
-9.956879
-9.957195
-9.957657
-9.958299
-9.959103
-9.959693
-9.959617
-9.95936
-9.95897
-9.958527
-9.958104
-9.957783
-9.957612
-9.957597
-9.957709
-9.957911
-9.958165
-9.958442
-9.95872
-9.958985
-9.959225
-9.959423
-9.959565
-9.959641
-9.959645
-9.959577
-9.959451
-9.959321
-9.95923
-9.958952
-9.958621
-9.958271
-9.957895
-9.9575
-9.957098
-9.956701
-9.956323
-9.955984
-9.955718
-9.955594
-9.955719
-9.956069
-9.956627
-9.957454
-9.958535
-9.959294
-9.959376
-9.958993
-9.958475
-9.957894
-9.957357
-9.956958
-9.956757
-9.956764
-9.956951
-9.957274
-9.957685
-9.958142
-9.958609
-9.959061
-9.959478
-9.95984
-9.960126
-9.960325
-9.960431
-9.960442
-9.960383
-9.96031
-9.960163
-9.959842
-9.959444
-9.958979
-9.958451
-9.957872
-9.957256
-9.956623
-9.955994
-9.955399
-9.9549
-9.954632
-9.954717
-9.955058
-9.955674
-9.956651
-9.957908
-9.958706
-9.959007
-9.958527
-9.95792
-9.95725
-9.956646
-9.956205
-9.955994
-9.956031
-9.956286
-9.95671
-9.957249
-9.95785
-9.958472
-9.95908
-9.959649
-9.960152
-9.960571
-9.960883
-9.961063
-9.96111
-9.961095
-9.961046
-9.960889
-9.960581
-9.96014
-9.959588
-9.958941
-9.958214
-9.957426
-9.9566
-9.955764
-9.954969
-9.954312
-9.953944
-9.953928
-9.954206
-9.954829
-9.955888
-9.957246
-9.958043
-9.95854
-9.957935
-9.957344
-9.956653
-9.956042
-9.9556
-9.955403
-9.955472
-9.95578
-9.956278
-9.956908
-9.957613
-9.958345
-9.959064
-9.959738
-9.960342
-9.960851
-9.961234
-9.96146
-9.961571
-9.96163
-9.961594
-9.961418
-9.961093
-9.960625
-9.960017
-9.959292
-9.95847
-9.95757
-9.956622
-9.955666
-9.954769
-9.954022
-9.95353
-9.953376
-9.953575
-9.954186
-9.955294
-9.956699
-9.957534
-9.958444
-9.957785
-9.956988
-9.956197
-9.955591
-9.955186
-9.955029
-9.955137
-9.955486
-9.95603
-9.956712
-9.957476
-9.958269
-9.95905
-9.959788
-9.960457
-9.96103
-9.961473
-9.961768
-9.961947
-9.962013
-9.961931
-9.961707
-9.961346
-9.960855
-9.960226
-9.959472
-9.958614
-9.957674
-9.956686
-9.955693
-9.954759
-9.953959
-9.95337
-9.953092
-9.953205
-9.953783
-9.954898
-9.956329
-9.957191
-9.958718
-9.958148
-9.95721
-9.956257
-9.955537
-9.955108
-9.954963
-9.955088
-9.955451
-9.956004
-9.956693
-9.957465
-9.95827
-9.959068
-9.959825
-9.960513
-9.961103
-9.961568
-9.961891
-9.962074
-9.962112
-9.961997
-9.961743
-9.96136
-9.960859
-9.960241
-9.959505
-9.958664
-9.957743
-9.956773
-9.955795
-9.954867
-9.954056
-9.95343
-9.953081
-9.953115
-9.953627
-9.954693
-9.956131
-9.957036
-9.95893
-9.958449
-9.957626
-9.956744
-9.95601
-9.955532
-9.955343
-9.955423
-9.955732
-9.956222
-9.956845
-9.957551
-9.958295
-9.959037
-9.959744
-9.960387
-9.960941
-9.961382
-9.961693
-9.961867
-9.961899
-9.961793
-9.961551
-9.961179
-9.960693
-9.960104
-9.959418
-9.958639
-9.957781
-9.956874
-9.955954
-9.955074
-9.954297
-9.953679
-9.953302
-9.953274
-9.953702
-9.954665
-9.956037
-9.956984
-9.95897
-9.958608
-9.95797
-9.957271
-9.956651
-9.956205
-9.955998
-9.956018
-9.956237
-9.956614
-9.95711
-9.957686
-9.958304
-9.95893
-9.959536
-9.960095
-9.960582
-9.960973
-9.961252
-9.96141
-9.961449
-9.961371
-9.961169
-9.960839
-9.960395
-9.959857
-9.959241
-9.958551
-9.957795
-9.95699
-9.956168
-9.955375
-9.954668
-9.954098
-9.953728
-9.953654
-9.953985
-9.954797
-9.95598
-9.956819
-9.958857
-9.958655
-9.958264
-9.957803
-9.957355
-9.956995
-9.956797
-9.956762
-9.956876
-9.957114
-9.95745
-9.957858
-9.958309
-9.95878
-9.959249
-9.959696
-9.960091
-9.960413
-9.960648
-9.960788
-9.960837
-9.960793
-9.960643
-9.960378
-9.960002
-9.959537
-9.959004
-9.958419
-9.957788
-9.957118
-9.95643
-9.955758
-9.955149
-9.95465
-9.954313
-9.95421
-9.954436
-9.955052
-9.955941
-9.95653
-9.958696
-9.958663
-9.958531
-9.958323
-9.95808
-9.95784
-9.957675
-9.957596
-9.957603
-9.957691
-9.957851
-9.958069
-9.958331
-9.958621
-9.958929
-9.959242
-9.959533
-9.959774
-9.959957
-9.960077
-9.960132
-9.960118
-9.960021
-9.959829
-9.959543
-9.959171
-9.958736
-9.958262
-9.957768
-9.957255
-9.956729
-9.956208
-9.955725
-9.955318
-9.955024
-9.954899
-9.955007
-9.955391
-9.955939
-9.956282
-9.958538
-9.958656
-9.958768
-9.95881
-9.958784
-9.958683
-9.958567
-9.958457
-9.958368
-9.958315
-9.958303
-9.958334
-9.958403
-9.958501
-9.958625
-9.958782
-9.958958
-9.959121
-9.959253
-9.959348
-9.959404
-9.959411
-9.959359
-9.959236
-9.959041
-9.958775
-9.958452
-9.958095
-9.957741
-9.957396
-9.957052
-9.95671
-9.95638
-9.956079
-9.955833
-9.955678
-9.955651
-9.955783
-9.955987
-9.956103
-9.958348
-9.958603
-9.958941
-9.959234
-9.95942
-9.959468
-9.959417
-9.959293
-9.959129
-9.958954
-9.958792
-9.958658
-9.958556
-9.958479
-9.958422
-9.958398
-9.958428
-9.958509
-9.958601
-9.958677
-9.958728
-9.958744
-9.95872
-9.958653
-9.958539
-9.958375
-9.958169
-9.957938
-9.957725
-9.957549
-9.957396
-9.957248
-9.957083
-9.956895
-9.956698
-9.956508
-9.95634
-9.956223
-9.956117
-9.956039
-9.958083
-9.958468
-9.959025
-9.959558
-9.95995
-9.960148
-9.960177
-9.960062
-9.95985
-9.959586
-9.959308
-9.959044
-9.958803
-9.958584
-9.958378
-9.958185
-9.958047
-9.958016
-9.95807
-9.958137
-9.958177
-9.958182
-9.958159
-9.958122
-9.958072
-9.958003
-9.957915
-9.957819
-9.957748
-9.957733
-9.95776
-9.957797
-9.95779
-9.957718
-9.957572
-9.957348
-9.957047
-9.956702
-9.956336
-9.956092
-9.95774
-9.958246
-9.959004
-9.959758
-9.960349
-9.960694
-9.960817
-9.960739
-9.960514
-9.960201
-9.95985
-9.959496
-9.959154
-9.958826
-9.958511
-9.958203
-9.95792
-9.957747
-9.957738
-9.95778
-9.957792
-9.957761
-9.957713
-9.957679
-9.957668
-9.957673
-9.957688
-9.957715
-9.95778
-9.957921
-9.958112
-9.958314
-9.958455
-9.958498
-9.958408
-9.958158
-9.957743
-9.957203
-9.956623
-9.956238
-9.957344
-9.957951
-9.958877
-9.959828
-9.960603
-9.961096
-9.961322
-9.961306
-9.961105
-9.960785
-9.960401
-9.959995
-9.959589
-9.95919
-9.9588
-9.958419
-9.958047
-9.957751
-9.957648
-9.957635
-9.957592
-9.957502
-9.957405
-9.957345
-9.957342
-9.957393
-9.957486
-9.957616
-9.957805
-9.958079
-9.958411
-9.958755
-9.959031
-9.959185
-9.959154
-9.958894
-9.958396
-9.957703
-9.956952
-9.956431
-9.956926
-9.957605
-9.958659
-9.959776
-9.960718
-9.961352
-9.96169
-9.961756
-9.961608
-9.961316
-9.960939
-9.960522
-9.960092
-9.959661
-9.959232
-9.958803
-9.958377
-9.958
-9.957794
-9.957699
-9.957579
-9.957413
-9.957245
-9.957134
-9.957107
-9.957169
-9.957307
-9.95751
-9.957795
-9.958174
-9.958621
-9.95908
-9.959471
-9.959725
-9.959757
-9.959509
-9.958969
-9.95818
-9.957319
-9.956701
-9.956527
-9.957245
-9.958382
-9.959626
-9.96071
-9.961473
-9.961925
-9.962087
-9.962017
-9.961784
-9.961449
-9.961058
-9.960641
-9.96021
-9.959771
-9.959321
-9.958861
-9.958426
-9.958127
-9.957943
-9.957734
-9.957479
-9.957225
-9.957038
-9.95696
-9.957001
-9.957146
-9.957386
-9.957729
-9.958176
-9.958701
-9.959244
-9.959728
-9.960066
-9.960161
-9.959945
-9.959399
-9.958557
-9.95762
-9.956908
-9.956193
-9.956917
-9.958091
-9.959417
-9.960609
-9.961479
-9.962033
-9.9623
-9.962329
-9.962183
-9.961919
-9.961584