/*--------------------------------*- C++ -*----------------------------------*\
| =========                 |                                                 |
| \\      /  F ield         | OpenFOAM: The Open Source CFD Toolbox           |
|  \\    /   O peration     | Version:  2212                                  |
|   \\  /    A nd           | Website:  www.openfoam.com                      |
|    \\/     M anipulation  |                                                 |
\*---------------------------------------------------------------------------*/
FoamFile
{
    version     2.0;
    format      ascii;
    arch        "LSB;label=32;scalar=64";
    class       volScalarField;
    location    "1000";
    object      p_rgh;
}
// * * * * * * * * * * * * * * * * * * * * * * * * * * * * * * * * * * * * * //

dimensions      [1 -1 -2 0 0 0 0];

internalField   nonuniform List<scalar> 
96000
(
4.977043
4.981194
4.981971
4.983088
4.984243
4.984991
4.985046
4.984685
4.984148
4.984094
4.984323
4.984676
4.985058
4.985335
4.985426
4.985317
4.984918
4.984572
4.984556
4.984437
4.984195
4.98399
4.983721
4.982985
4.982629
4.982481
4.982211
4.982083
4.982099
4.982448
4.982848
4.983071
4.983039
4.982951
4.983004
4.983612
4.984644
4.985693
4.986367
4.986124
4.980115
4.980789
4.982599
4.983927
4.984681
4.985101
4.985174
4.984853
4.984288
4.984119
4.984345
4.984774
4.985231
4.985609
4.985803
4.985768
4.985425
4.985258
4.985349
4.985254
4.985049
4.984828
4.984518
4.984008
4.983538
4.983162
4.98295
4.983017
4.983221
4.983417
4.983443
4.98331
4.983056
4.982874
4.982938
4.983541
4.984517
4.985548
4.98631
4.98587
4.981323
4.981979
4.983289
4.984136
4.984503
4.984677
4.984836
4.984721
4.984338
4.98429
4.984593
4.985099
4.985644
4.986115
4.986439
4.986572
4.986532
4.986557
4.986599
4.98652
4.986359
4.986137
4.985813
4.985345
4.984876
4.984639
4.984546
4.984606
4.984627
4.98448
4.984176
4.983807
4.983407
4.983139
4.983106
4.983465
4.984097
4.984839
4.985515
4.98567
4.982271
4.982912
4.983652
4.98414
4.984303
4.984331
4.984299
4.984225
4.984229
4.984433
4.984832
4.98535
4.985886
4.986365
4.986732
4.986956
4.987099
4.98722
4.987276
4.987244
4.987139
4.986962
4.986703
4.986368
4.986071
4.985937
4.985863
4.985799
4.985654
4.985337
4.984901
4.984438
4.983978
4.983633
4.983468
4.98357
4.983871
4.984218
4.984567
4.984441
4.982926
4.983358
4.983765
4.984022
4.984066
4.984043
4.984032
4.984117
4.98431
4.984612
4.985022
4.985492
4.98596
4.986378
4.986712
4.986969
4.987174
4.987327
4.987419
4.987451
4.987428
4.987344
4.987199
4.987013
4.986886
4.986878
4.986836
4.986688
4.986447
4.986066
4.98559
4.985095
4.984612
4.984222
4.983962
4.983866
4.983884
4.98391
4.984004
4.98393
4.983286
4.983529
4.983788
4.983957
4.98402
4.984078
4.984169
4.98433
4.984557
4.984844
4.98518
4.985541
4.985897
4.986214
4.986482
4.986706
4.986888
4.987034
4.987146
4.987232
4.987293
4.987317
4.987296
4.987253
4.987321
4.987401
4.987383
4.987255
4.987025
4.986682
4.986255
4.985781
4.985294
4.98485
4.98448
4.984184
4.983946
4.983694
4.983428
4.983059
4.983384
4.983554
4.983813
4.984026
4.984209
4.984405
4.984605
4.984811
4.985016
4.98522
4.985425
4.985628
4.985821
4.985999
4.986159
4.986297
4.986416
4.986527
4.986638
4.986751
4.98687
4.986983
4.987093
4.987265
4.987435
4.98759
4.98764
4.987605
4.987466
4.987228
4.9869
4.98649
4.98602
4.985532
4.98506
4.984606
4.984213
4.983758
4.983143
4.98256
4.983326
4.983503
4.98387
4.984217
4.984574
4.984919
4.985213
4.985439
4.985593
4.985687
4.985738
4.985763
4.98578
4.985803
4.985836
4.985867
4.985897
4.98594
4.986012
4.986122
4.986284
4.986521
4.986893
4.987222
4.987376
4.987575
4.987723
4.987802
4.98779
4.987684
4.987474
4.987144
4.986691
4.98615
4.985603
4.985132
4.984684
4.984084
4.983167
4.982232
4.98319
4.983402
4.983949
4.984479
4.985022
4.985506
4.985875
4.986105
4.986199
4.986181
4.986082
4.98594
4.985787
4.985654
4.985551
4.985462
4.985386
4.985344
4.985363
4.98547
4.985714
4.986213
4.986907
4.987039
4.987136
4.987382
4.987657
4.987881
4.98802
4.988051
4.987944
4.98766
4.987181
4.98658
4.986104
4.985725
4.985211
4.98448
4.983214
4.981456
4.982988
4.983248
4.984018
4.984737
4.985448
4.986053
4.986481
4.986709
4.986749
4.986636
4.986414
4.986127
4.985821
4.985537
4.985298
4.985103
4.984947
4.984837
4.98481
4.984915
4.98521
4.985764
4.986294
4.9865
4.986743
4.987106
4.987512
4.987879
4.988157
4.988298
4.988245
4.987946
4.987427
4.986906
4.986647
4.986328
4.98577
4.985001
4.983602
4.981742
4.982674
4.982953
4.983979
4.984895
4.98575
4.986453
4.986929
4.987159
4.987165
4.986986
4.986673
4.986277
4.985848
4.985434
4.985076
4.984792
4.984584
4.984443
4.984335
4.984264
4.984419
4.984871
4.985391
4.985833
4.986266
4.98677
4.987296
4.987782
4.988166
4.988382
4.988364
4.988094
4.987684
4.987376
4.987199
4.986855
4.986255
4.985415
4.983852
4.981878
4.982288
4.982544
4.983769
4.984846
4.985813
4.986599
4.987124
4.987374
4.987375
4.987171
4.986816
4.986361
4.985858
4.985354
4.984901
4.984533
4.984263
4.984041
4.983783
4.983614
4.983758
4.98413
4.984605
4.985135
4.985706
4.986318
4.986944
4.987526
4.988
4.988304
4.988392
4.988288
4.988085
4.987863
4.987638
4.987257
4.986637
4.985732
4.983946
4.98156
4.982436
4.982648
4.983657
4.984621
4.985601
4.98646
4.987041
4.987331
4.987366
4.987189
4.98685
4.986399
4.985882
4.985353
4.98487
4.984476
4.984185
4.983935
4.983675
4.983524
4.983559
4.983722
4.984032
4.984499
4.985104
4.985773
4.986469
4.987134
4.987707
4.988133
4.98838
4.988462
4.988422
4.988257
4.987983
4.987561
4.986936
4.985998
4.98411
4.981562
4.98288
4.983313
4.984109
4.984745
4.985498
4.986271
4.986831
4.987135
4.987205
4.987075
4.986789
4.986391
4.985929
4.985453
4.985015
4.984644
4.984348
4.984087
4.983833
4.983632
4.983519
4.983513
4.983673
4.984029
4.984573
4.985257
4.985996
4.986716
4.987367
4.9879
4.988274
4.988495
4.988575
4.988491
4.988224
4.987778
4.98713
4.986172
4.984254
4.981505
4.983312
4.983864
4.984568
4.985183
4.985795
4.986359
4.98677
4.986997
4.987038
4.986916
4.986661
4.986314
4.985912
4.985497
4.985102
4.984751
4.984448
4.984171
4.983905
4.983667
4.983488
4.983429
4.983526
4.983797
4.984245
4.984862
4.985587
4.986329
4.987015
4.987605
4.988058
4.988366
4.988547
4.988553
4.988341
4.987912
4.987272
4.986342
4.984512
4.981511
4.983793
4.984365
4.984917
4.985438
4.985923
4.986352
4.986655
4.986812
4.986823
4.986703
4.986476
4.986173
4.985824
4.985459
4.985104
4.984784
4.984495
4.984223
4.983959
4.983711
4.983528
4.98347
4.983557
4.98378
4.984135
4.98464
4.985281
4.985982
4.986663
4.987269
4.987762
4.988124
4.988374
4.988476
4.988371
4.988014
4.987428
4.986589
4.984991
4.982169
4.984334
4.984839
4.985161
4.985503
4.985829
4.986123
4.986333
4.986443
4.986448
4.986357
4.986182
4.985941
4.985656
4.985349
4.985048
4.984778
4.984524
4.984272
4.984024
4.983804
4.983656
4.983623
4.983713
4.983912
4.984201
4.984589
4.985094
4.985694
4.986321
4.98691
4.987417
4.987809
4.988105
4.988292
4.988309
4.988082
4.987624
4.986948
4.985717
4.983589
4.984839
4.985237
4.985348
4.985472
4.985598
4.985734
4.985845
4.985918
4.985937
4.985894
4.98579
4.985628
4.985416
4.985171
4.98492
4.984702
4.984506
4.984299
4.984098
4.983934
4.983843
4.983847
4.983949
4.984132
4.984375
4.984666
4.985021
4.985468
4.985993
4.986537
4.987037
4.987446
4.987774
4.988026
4.988144
4.988064
4.987786
4.987327
4.98653
4.98528
4.985278
4.985579
4.985485
4.985393
4.985306
4.985274
4.985282
4.985317
4.985353
4.985367
4.985342
4.985267
4.985135
4.984947
4.984726
4.984538
4.9844
4.984276
4.984162
4.984085
4.984068
4.984119
4.984238
4.984407
4.984605
4.984812
4.985032
4.985301
4.985684
4.986152
4.986632
4.987058
4.987414
4.987695
4.987871
4.987917
4.987829
4.987608
4.987215
4.986616
4.985705
4.985914
4.985614
4.985311
4.985014
4.984813
4.984713
4.984705
4.984754
4.984824
4.984883
4.984905
4.984866
4.984747
4.984555
4.984357
4.984224
4.984186
4.984197
4.984247
4.984334
4.984453
4.984594
4.984748
4.984898
4.985024
4.985124
4.985221
4.985436
4.985806
4.986254
4.986691
4.987044
4.98729
4.987474
4.98761
4.987692
4.987702
4.987635
4.987427
4.986169
4.986279
4.985772
4.985267
4.984763
4.984397
4.984192
4.984136
4.984188
4.984302
4.984437
4.984556
4.984621
4.984596
4.984461
4.984253
4.98409
4.984083
4.98423
4.984447
4.984673
4.984862
4.985006
4.985125
4.985226
4.985292
4.985314
4.985309
4.985367
4.985613
4.985984
4.986369
4.986642
4.986799
4.986951
4.987137
4.987357
4.987577
4.987772
4.987796
4.986688
4.986694
4.985993
4.985295
4.984588
4.984046
4.983726
4.983614
4.983658
4.983804
4.984004
4.984213
4.984379
4.984453
4.984414
4.984279
4.984122
4.9841
4.984339
4.984708
4.985061
4.985308
4.985442
4.985518
4.985571
4.985589
4.985556
4.985473
4.985416
4.98555
4.985807
4.986065
4.986193
4.986233
4.986326
4.986529
4.986848
4.987243
4.987642
4.987831
4.987256
4.987164
4.986287
4.985421
4.984526
4.983803
4.983346
4.983151
4.983162
4.983317
4.98356
4.983834
4.984079
4.984249
4.984332
4.984325
4.98426
4.984261
4.984544
4.985016
4.985465
4.985757
4.985872
4.9859
4.985901
4.98588
4.985809
4.985669
4.985545
4.985568
4.985682
4.985768
4.985721
4.985635
4.985653
4.985844
4.986222
4.986746
4.987293
4.987627
4.987857
4.987676
4.986648
4.985642
4.98459
4.983701
4.983097
4.982797
4.982741
4.982869
4.983117
4.983425
4.983734
4.983999
4.984203
4.984332
4.984403
4.984497
4.984813
4.985341
4.98586
4.986181
4.986279
4.986266
4.986227
4.986171
4.986068
4.985892
4.98572
4.985634
4.985597
4.985497
4.985277
4.985069
4.985005
4.985159
4.985556
4.98615
4.986803
4.987256
4.988454
4.988195
4.987046
4.985934
4.984762
4.983731
4.982985
4.982561
4.982413
4.98248
4.9827
4.983014
4.983371
4.98372
4.98403
4.984286
4.984494
4.984707
4.985071
4.985636
4.9862
4.986547
4.986642
4.986615
4.98656
4.986488
4.986361
4.986161
4.985939
4.985747
4.985554
4.985275
4.984918
4.984607
4.984459
4.984558
4.984938
4.985558
4.986284
4.98684
4.989002
4.988673
4.987437
4.986261
4.985015
4.983875
4.982995
4.98244
4.982181
4.982162
4.982327
4.982622
4.982999
4.983412
4.983821
4.984194
4.984528
4.984865
4.985295
4.985883
4.986471
4.986838
4.986946
4.986939
4.986907
4.986846
4.986703
4.986471
4.986192
4.985906
4.985579
4.985165
4.984708
4.984312
4.984086
4.984121
4.984451
4.985056
4.985807
4.986422
4.989447
4.989053
4.98777
4.986583
4.985315
4.984108
4.983114
4.982429
4.982047
4.981926
4.982016
4.982271
4.982647
4.983103
4.983594
4.984076
4.984524
4.98498
4.98549
4.986092
4.986683
4.987055
4.98719
4.987235
4.987248
4.987189
4.987022
4.986766
4.98646
4.986115
4.9857
4.985208
4.984686
4.984229
4.983937
4.983902
4.984157
4.984715
4.985443
4.986067
4.989696
4.989257
4.987998
4.986859
4.985625
4.984399
4.983316
4.982509
4.982006
4.981774
4.981778
4.981979
4.982337
4.982813
4.983365
4.983943
4.984503
4.985073
4.985659
4.98626
4.986839
4.987214
4.987385
4.987462
4.987483
4.987421
4.987271
4.987045
4.986755
4.986397
4.985951
4.985426
4.984874
4.984378
4.984031
4.983925
4.984094
4.984573
4.985237
4.985821
4.989532
4.989148
4.988055
4.987011
4.985871
4.984686
4.983556
4.982651
4.982036
4.981699
4.981615
4.981754
4.982083
4.982564
4.983162
4.983821
4.984491
4.985176
4.985834
4.986434
4.986957
4.987313
4.987456
4.987539
4.987586
4.987574
4.987488
4.98733
4.987093
4.986763
4.986331
4.98581
4.985252
4.984735
4.984343
4.984161
4.984229
4.984597
4.985146
4.98564
4.988926
4.98866
4.987795
4.986855
4.985847
4.984786
4.983698
4.98276
4.982077
4.981662
4.981505
4.981586
4.98188
4.982359
4.982996
4.983719
4.984489
4.985278
4.986004
4.986632
4.987114
4.987382
4.987467
4.987553
4.987641
4.987701
4.987702
4.987629
4.987466
4.987196
4.986807
4.986318
4.985775
4.985249
4.984817
4.984555
4.984516
4.984749
4.985139
4.985502
4.988213
4.988009
4.987307
4.98646
4.985554
4.984615
4.983631
4.982732
4.982041
4.981593
4.981392
4.981432
4.981702
4.982196
4.982877
4.983672
4.984534
4.985395
4.986166
4.986802
4.987228
4.987413
4.987494
4.987594
4.98771
4.987818
4.987892
4.987905
4.98783
4.987639
4.987316
4.986873
4.986354
4.985819
4.985344
4.984996
4.984838
4.984928
4.985196
4.985479
4.987488
4.987312
4.98673
4.98602
4.985222
4.984384
4.983505
4.982669
4.982
4.981544
4.981321
4.981334
4.98159
4.982091
4.982808
4.983674
4.984603
4.985495
4.986258
4.98684
4.987198
4.987391
4.987527
4.987644
4.987757
4.98788
4.988004
4.988097
4.988115
4.988014
4.987767
4.987376
4.986879
4.986333
4.985806
4.985361
4.98507
4.985039
4.985204
4.985487
4.986738
4.986571
4.986106
4.985571
4.984913
4.984196
4.983432
4.982682
4.98206
4.981623
4.981397
4.981398
4.981637
4.982116
4.982811
4.983659
4.984562
4.985418
4.986154
4.98673
4.987135
4.987409
4.987612
4.987738
4.98785
4.987965
4.988086
4.988194
4.988261
4.988232
4.988055
4.987712
4.987231
4.986665
4.986066
4.985493
4.985035
4.984803
4.98478
4.98492
4.985925
4.985781
4.985471
4.985137
4.984644
4.984078
4.983446
4.982812
4.982274
4.981885
4.981678
4.981675
4.981889
4.982322
4.982945
4.9837
4.984507
4.985308
4.986057
4.986688
4.987151
4.987489
4.987768
4.987963
4.988082
4.988161
4.988227
4.988282
4.988317
4.988288
4.988131
4.987806
4.987326
4.986727
4.986039
4.985299
4.984583
4.984092
4.983919
4.983767
4.985126
4.985064
4.984897
4.984758
4.984429
4.984028
4.983554
4.983074
4.982657
4.982351
4.982185
4.982189
4.98238
4.982759
4.983301
4.983955
4.984673
4.985426
4.986166
4.986789
4.98724
4.987583
4.987901
4.988161
4.988351
4.988459
4.988503
4.988488
4.988428
4.988303
4.988063
4.987668
4.987125
4.986468
4.985683
4.984752
4.983648
4.98318
4.983453
4.982981
4.984462
4.984525
4.984447
4.984473
4.98429
4.984061
4.983767
4.983476
4.983217
4.983027
4.982931
4.982955
4.983128
4.983455
4.983923
4.984494
4.98513
4.985805
4.986464
4.987004
4.987382
4.987662
4.987954
4.988216
4.988433
4.988569
4.988637
4.988621
4.988521
4.98832
4.987977
4.987459
4.986744
4.985928
4.985042
4.983961
4.982764
4.982866
4.983343
4.983009
4.984046
4.984235
4.984195
4.984317
4.984252
4.984187
4.984084
4.984005
4.983925
4.983875
4.983871
4.983935
4.984098
4.984375
4.984765
4.985233
4.985739
4.986277
4.986834
4.987327
4.987611
4.987757
4.987938
4.988133
4.988318
4.98844
4.988525
4.98852
4.988411
4.988188
4.987791
4.987195
4.986368
4.985351
4.984283
4.983148
4.982102
4.982696
4.983233
4.983112
4.983846
4.984149
4.984149
4.984281
4.984322
4.984419
4.984489
4.984616
4.984721
4.984827
4.984939
4.985067
4.98524
4.985476
4.985776
4.986087
4.986404
4.986791
4.987249
4.987661
4.987849
4.987818
4.987829
4.98789
4.987978
4.988024
4.988093
4.988072
4.987948
4.987749
4.987341
4.986742
4.985924
4.984855
4.983692
4.982566
4.981669
4.982182
4.982933
4.983212
4.98391
4.984365
4.984447
4.984393
4.984467
4.984727
4.984908
4.985217
4.985508
4.985786
4.986041
4.986263
4.986475
4.986665
4.986825
4.986952
4.987144
4.987458
4.987812
4.988083
4.988168
4.987961
4.987752
4.98761
4.98752
4.987415
4.987407
4.987291
4.987066
4.986862
4.986461
4.985865
4.985109
4.984135
4.983065
4.982096
4.981337
4.981274
4.981595
4.981848
4.983791
4.984344
4.984476
4.98426
4.984362
4.984867
4.985146
4.985596
4.986051
4.986449
4.98678
4.987045
4.987254
4.987349
4.987366
4.987426
4.987622
4.987936
4.988241
4.988385
4.988228
4.987825
4.987432
4.987119
4.986896
4.986769
4.98671
4.986473
4.986146
4.985939
4.985658
4.985139
4.984322
4.983526
4.982611
4.981777
4.981116
4.980986
4.98134
4.981647
4.983043
4.980638
4.982011
4.98358
4.984883
4.986121
4.985741
4.984675
4.983411
4.983587
4.984082
4.984513
4.98492
4.98509
4.984857
4.984412
4.983795
4.98365
4.983551
4.98302
4.982595
4.982547
4.982459
4.980548
4.980066
4.980317
4.980676
4.981038
4.981223
4.981868
4.982647
4.98296
4.982654
4.982217
4.982058
4.983093
4.984898
4.986653
4.987284
4.986224
4.979129
4.981259
4.983156
4.984158
4.984686
4.985064
4.98514
4.984625
4.984072
4.984157
4.984394
4.984696
4.984946
4.985204
4.985401
4.985589
4.985627
4.985583
4.985369
4.985
4.984653
4.984371
4.98396
4.983336
4.982731
4.982581
4.982879
4.983411
4.983732
4.983793
4.983642
4.983339
4.982959
4.982766
4.982926
4.983852
4.984999
4.986119
4.98726
4.985708
4.980586
4.982369
4.983504
4.984071
4.984224
4.984205
4.98411
4.983922
4.98379
4.98389
4.984192
4.984664
4.985209
4.985731
4.986193
4.986541
4.986727
4.986766
4.986661
4.98647
4.986238
4.985981
4.985622
4.985184
4.984835
4.984883
4.984965
4.985119
4.985051
4.984724
4.984256
4.98376
4.983235
4.982921
4.9829
4.983311
4.983913
4.984726
4.986039
4.986778
4.981936
4.982954
4.983595
4.983947
4.984004
4.983922
4.983779
4.983671
4.9837
4.983927
4.984344
4.984903
4.985515
4.986079
4.986544
4.986884
4.987097
4.987187
4.987175
4.987092
4.986957
4.986778
4.986544
4.986328
4.986308
4.986348
4.986303
4.986185
4.985892
4.985426
4.984874
4.984321
4.98376
4.983353
4.983142
4.983198
4.983431
4.983867
4.984745
4.984245
4.982617
4.983142
4.983525
4.98374
4.983788
4.983779
4.98376
4.983803
4.983956
4.984246
4.984664
4.985163
4.985682
4.986157
4.986554
4.986857
4.987067
4.987194
4.987257
4.987277
4.987258
4.987194
4.987086
4.987072
4.987133
4.987132
4.987049
4.986854
4.986502
4.986031
4.985497
4.984961
4.984429
4.983998
4.983691
4.983546
4.983527
4.983691
4.984301
4.984177
4.982951
4.983179
4.983471
4.983631
4.983748
4.983864
4.983984
4.984141
4.984353
4.984634
4.984973
4.985346
4.98572
4.986059
4.986345
4.986573
4.986744
4.986875
4.986978
4.987062
4.987126
4.987165
4.987199
4.987278
4.987352
4.987345
4.98731
4.98718
4.986909
4.986547
4.986127
4.985677
4.985214
4.984791
4.984429
4.984131
4.983887
4.983722
4.983781
4.982891
4.982936
4.983143
4.983462
4.98366
4.983907
4.984185
4.984442
4.984676
4.984894
4.985104
4.985313
4.985517
4.98571
4.985884
4.986034
4.986158
4.986263
4.986357
4.986451
4.986546
4.986645
4.986746
4.986869
4.987007
4.987092
4.987188
4.987282
4.987284
4.987179
4.986996
4.986749
4.98645
4.986109
4.985758
4.9854
4.985016
4.984582
4.984058
4.983515
4.981884
4.982705
4.983088
4.983504
4.983823
4.984237
4.984678
4.985061
4.985343
4.985526
4.985632
4.985684
4.985703
4.985703
4.985696
4.985687
4.985682
4.985684
4.985703
4.985743
4.985804
4.985891
4.986028
4.986229
4.986393
4.986581
4.986832
4.987064
4.987227
4.987318
4.987347
4.987313
4.987221
4.987062
4.98683
4.98651
4.986078
4.985491
4.984701
4.983688
4.981117
4.982397
4.982987
4.983579
4.984077
4.984684
4.985279
4.985748
4.986043
4.986168
4.986154
4.986044
4.985876
4.985683
4.98549
4.985311
4.985158
4.985041
4.984962
4.984918
4.984916
4.984976
4.985146
4.985363
4.985603
4.98595
4.986325
4.986698
4.987044
4.987347
4.987601
4.987803
4.987943
4.987989
4.987897
4.987635
4.98716
4.986456
4.985447
4.983833
4.979409
4.981998
4.982839
4.983679
4.984384
4.985177
4.985903
4.986428
4.986708
4.986759
4.986627
4.986367
4.986028
4.985655
4.985283
4.984937
4.984634
4.984383
4.984189
4.984054
4.983987
4.984019
4.984179
4.984447
4.984829
4.985276
4.985759
4.98627
4.986785
4.987282
4.987749
4.988178
4.988541
4.988794
4.988853
4.988639
4.988146
4.987371
4.986208
4.984242
4.980004
4.981408
4.9826
4.983754
4.984685
4.985639
4.986457
4.987008
4.98726
4.987243
4.987013
4.986631
4.986155
4.985632
4.985104
4.984604
4.984157
4.983779
4.983473
4.983233
4.983094
4.983129
4.983337
4.983665
4.984112
4.984628
4.9852
4.985823
4.986479
4.987143
4.987797
4.98842
4.988979
4.989406
4.989589
4.989451
4.988999
4.988199
4.986943
4.984791
4.979836
4.981025
4.982304
4.983756
4.984901
4.985982
4.986856
4.987413
4.98764
4.987575
4.987279
4.986815
4.986243
4.985615
4.984974
4.984359
4.983801
4.983323
4.982926
4.982618
4.982465
4.98251
4.982712
4.98305
4.983519
4.98408
4.984713
4.98542
4.98618
4.986969
4.98776
4.988525
4.989216
4.989755
4.990051
4.990029
4.989647
4.988865
4.987571
4.985235
4.979749
4.981473
4.982411
4.983715
4.984979
4.986159
4.987071
4.987623
4.98783
4.987739
4.987409
4.986906
4.986289
4.985609
4.984912
4.98424
4.983628
4.9831
4.982665
4.982341
4.982168
4.982168
4.982327
4.982641
4.983106
4.983692
4.984364
4.985116
4.98593
4.986784
4.987648
4.988489
4.989257
4.989884
4.990288
4.990377
4.990076
4.989334
4.988043
4.985646
4.98012
4.981927
4.982954
4.984033
4.985094
4.986185
4.987095
4.987636
4.987828
4.987725
4.98739
4.986886
4.986269
4.98559
4.984895
4.984224
4.983607
4.983068
4.982623
4.982291
4.9821
4.982064
4.982189
4.982473
4.982912
4.983485
4.984167
4.984923
4.985742
4.986605
4.987485
4.988349
4.989149
4.989826
4.990302
4.99048
4.990259
4.989576
4.988336
4.985943
4.979849
4.982319
4.983478
4.984527
4.985384
4.986233
4.986977
4.987438
4.987601
4.987506
4.987204
4.986746
4.986184
4.985564
4.984925
4.984303
4.983724
4.983213
4.982785
4.98246
4.982257
4.982195
4.982289
4.982539
4.982936
4.983461
4.984102
4.984832
4.985618
4.986446
4.987297
4.988139
4.988929
4.989607
4.990108
4.990345
4.990204
4.98961
4.988493
4.986236
4.979874
4.98306
4.984145
4.984921
4.985575
4.986211
4.986752
4.98709
4.987211
4.987134
4.986893
4.986523
4.986061
4.985542
4.984998
4.98446
4.983953
4.983497
4.983111
4.982809
4.98261
4.982532
4.982594
4.982802
4.983145
4.983605
4.984171
4.984831
4.985555
4.986314
4.987095
4.987876
4.988616
4.989258
4.989748
4.990012
4.989945
4.989469
4.988535
4.986593
4.981499
4.983997
4.984853
4.98525
4.985636
4.986026
4.986371
4.986595
4.986685
4.986643
4.986483
4.986224
4.985889
4.985499
4.985078
4.984651
4.984243
4.983871
4.983547
4.983286
4.983103
4.98302
4.983056
4.983219
4.983502
4.983885
4.984359
4.984917
4.985545
4.98621
4.986891
4.987577
4.988233
4.988812
4.989268
4.989538
4.989536
4.9892
4.988501
4.987048
4.983697
4.984824
4.985413
4.985518
4.985614
4.98574
4.985885
4.985998
4.98606
4.98606
4.985993
4.985858
4.985664
4.985421
4.985141
4.984842
4.984547
4.984274
4.984032
4.983828
4.983678
4.983603
4.983622
4.983748
4.983971
4.984274
4.984644
4.98508
4.985581
4.98613
4.98669
4.987254
4.987799
4.988293
4.988695
4.988959
4.989024
4.988849
4.988417
4.987513
4.985685
4.98546
4.985867
4.985709
4.985544
4.985408
4.985356
4.985358
4.985392
4.985431
4.985453
4.98544
4.985387
4.985291
4.985158
4.984996
4.984824
4.984653
4.9845
4.984371
4.984276
4.984229
4.984248
4.984345
4.984515
4.984742
4.985008
4.98531
4.985657
4.986066
4.986494
4.986919
4.987335
4.98772
4.988049
4.988301
4.988441
4.988447
4.9883
4.98792
4.987216
4.986039
4.986303
4.985865
4.985453
4.985082
4.984838
4.984728
4.984727
4.984795
4.984893
4.98499
4.985066
4.985109
4.985115
4.985085
4.985031
4.98496
4.984893
4.984853
4.984838
4.984844
4.984883
4.984965
4.98509
4.985247
4.985419
4.985595
4.985785
4.986027
4.986311
4.986588
4.986858
4.987112
4.987352
4.987585
4.987804
4.987997
4.988138
4.988207
4.988075
4.986654
4.986753
4.986034
4.985378
4.984794
4.984377
4.984152
4.984106
4.984186
4.98434
4.984524
4.984708
4.984871
4.984999
4.985083
4.985131
4.985153
4.985171
4.985225
4.985307
4.985392
4.985476
4.985561
4.985652
4.985748
4.985837
4.985907
4.985963
4.986035
4.986154
4.986272
4.986382
4.986492
4.98663
4.986836
4.987126
4.987493
4.987909
4.988341
4.988425
4.987293
4.987221
4.986245
4.985365
4.984574
4.984
4.983666
4.98356
4.983628
4.98381
4.984054
4.984318
4.984571
4.984793
4.984972
4.985106
4.98521
4.985314
4.985458
4.985646
4.985828
4.985976
4.986083
4.986159
4.986209
4.986228
4.986209
4.986148
4.986072
4.986029
4.985986
4.985929
4.985889
4.985919
4.986085
4.986424
4.986938
4.987585
4.98827
4.988445
4.987926
4.987702
4.98651
4.985435
4.984455
4.983726
4.983282
4.983107
4.983141
4.983323
4.983594
4.983905
4.984217
4.984508
4.984767
4.984983
4.985166
4.985349
4.985574
4.985857
4.986138
4.986358
4.986505
4.986586
4.98661
4.986577
4.986484
4.986328
4.986135
4.985945
4.985744
4.985525
4.985338
4.985256
4.985367
4.985727
4.986341
4.987154
4.988006
4.988257
4.988543
4.988185
4.986817
4.985581
4.984436
4.983564
4.983009
4.982752
4.982734
4.982888
4.983156
4.983486
4.983833
4.984169
4.984483
4.98477
4.985032
4.985299
4.985601
4.98596
4.986324
4.986619
4.986816
4.986923
4.986946
4.986883
4.986736
4.986509
4.986225
4.98591
4.985566
4.985202
4.984881
4.98469
4.984731
4.985075
4.985729
4.986622
4.987573
4.987886
4.989116
4.988631
4.987134
4.985775
4.984498
4.983504
4.982839
4.982485
4.982393
4.982501
4.982742
4.983064
4.983422
4.983788
4.984144
4.984485
4.984815
4.985161
4.985534
4.985954
4.98639
4.986759
4.987018
4.98717
4.987217
4.987152
4.98698
4.986707
4.986355
4.985943
4.985481
4.984999
4.984564
4.984272
4.984231
4.984528
4.985169
4.98608
4.9871
4.987499
4.989599
4.988987
4.98741
4.985981
4.984614
4.983525
4.982758
4.982305
4.982126
4.982164
4.982355
4.982646
4.982996
4.983376
4.983768
4.984154
4.984538
4.984946
4.985379
4.985849
4.986346
4.986787
4.987116
4.987328
4.987423
4.987385
4.987217
4.986929
4.986539
4.986065
4.985524
4.984956
4.984431
4.98405
4.983924
4.984146
4.984723
4.985594
4.986613
4.987062
4.989945
4.989196
4.98759
4.986155
4.98475
4.983599
4.982755
4.98221
4.981936
4.981885
4.982005
4.982247
4.982572
4.982954
4.98337
4.983796
4.98422
4.984672
4.985153
4.985666
4.986216
4.986723
4.987123
4.987406
4.987563
4.987576
4.987445
4.98718
4.986793
4.986297
4.985717
4.985097
4.984512
4.984061
4.983852
4.983983
4.984456
4.985244
4.986199
4.986632
4.990066
4.989204
4.987638
4.986264
4.984877
4.983699
4.982802
4.982177
4.981807
4.981661
4.981698
4.981877
4.982166
4.982534
4.98296
4.983413
4.983871
4.984356
4.984876
4.985429
4.98603
4.986598
4.987061
4.987413
4.987644
4.987735
4.987677
4.987472
4.987126
4.98665
4.98607
4.985434
4.984819
4.984318
4.984035
4.984066
4.984414
4.985085
4.985929
4.986299
4.989723
4.988967
4.987547
4.986276
4.98496
4.983797
4.982871
4.982182
4.981725
4.981484
4.981433
4.981541
4.98178
4.982125
4.98255
4.983016
4.983505
4.984025
4.984581
4.985179
4.985821
4.986429
4.986947
4.987376
4.9877
4.987889
4.987929
4.987812
4.987539
4.987117
4.986571
4.98595
4.985328
4.984794
4.984442
4.984359
4.984553
4.985055
4.985712
4.985969
4.988834
4.988473
4.987331
4.986191
4.984983
4.983871
4.982941
4.982204
4.981673
4.981346
4.981208
4.981241
4.981425
4.981739
4.982156
4.982627
4.983145
4.983698
4.984288
4.984925
4.985585
4.986227
4.98682
4.987341
4.987763
4.988057
4.988204
4.988191
4.988014
4.987672
4.987187
4.986602
4.98599
4.985432
4.985015
4.98481
4.984839
4.985133
4.985552
4.985665
4.987954
4.987824
4.987005
4.986018
4.984947
4.983914
4.983006
4.982244
4.98166
4.981262
4.981048
4.98101
4.981136
4.981413
4.98181
4.982286
4.982823
4.983398
4.984016
4.98468
4.985367
4.98606
4.986727
4.987327
4.987833
4.988224
4.988481
4.988584
4.988515
4.988267
4.987853
4.987311
4.986707
4.986121
4.98563
4.985292
4.985165
4.985275
4.985538
4.985635
4.987199
4.987193
4.98654
4.985738
4.984832
4.983914
4.983062
4.98231
4.981704
4.981262
4.980993
4.980896
4.980966
4.981194
4.981557
4.982022
4.982561
4.983155
4.9838
4.984495
4.98523
4.985984
4.986711
4.98736
4.987916
4.988379
4.988734
4.988948
4.988989
4.988835
4.988488
4.98798
4.987373
4.986744
4.986172
4.985722
4.985464
4.985425
4.98556
4.985688
4.986485
4.98648
4.985972
4.985373
4.984654
4.983888
4.983133
4.982435
4.981847
4.981395
4.981097
4.980958
4.98098
4.981154
4.981464
4.981894
4.982421
4.983032
4.983711
4.984443
4.985218
4.986014
4.986781
4.987461
4.988051
4.988559
4.988975
4.989263
4.989383
4.989302
4.989003
4.988507
4.987877
4.987189
4.986525
4.985951
4.985549
4.985356
4.98517
4.984807
4.985678
4.985658
4.985328
4.984956
4.984437
4.983856
4.983243
4.982649
4.982126
4.981704
4.981405
4.981244
4.98123
4.981358
4.98162
4.982006
4.982508
4.983118
4.983813
4.984554
4.98533
4.986133
4.986928
4.987649
4.988275
4.988808
4.989244
4.98955
4.989691
4.989625
4.989327
4.988803
4.988127
4.987374
4.986612
4.985891
4.985313
4.984967
4.984372
4.983003
4.984859
4.984906
4.984705
4.984552
4.984221
4.983843
4.983411
4.982973
4.982565
4.982214
4.981947
4.981788
4.981751
4.981843
4.982063
4.98241
4.98288
4.983462
4.984123
4.984821
4.985553
4.986322
4.987102
4.987837
4.988498
4.989055
4.989501
4.989792
4.989901
4.989791
4.989428
4.988808
4.988026
4.987204
4.986361
4.985504
4.984757
4.984675
4.984145
4.982276
4.984162
4.984357
4.984201
4.984224
4.984063
4.98389
4.983664
4.983424
4.983172
4.982936
4.98274
4.982607
4.982562
4.982625
4.982807
4.983111
4.983532
4.984053
4.98464
4.985257
4.985911
4.986597
4.987308
4.98799
4.988622
4.989154
4.98959
4.989863
4.98994
4.989782
4.989336
4.988582
4.987585
4.986609
4.985731
4.984879
4.984252
4.984669
4.984358
4.983333
4.98376
4.984042
4.983907
4.984042
4.984032
4.984049
4.984028
4.984002
4.98393
4.983833
4.983726
4.983639
4.983606
4.983657
4.983808
4.984064
4.984417
4.98486
4.985363
4.985877
4.986399
4.986937
4.987508
4.988063
4.988598
4.989036
4.989414
4.989637
4.989663
4.989472
4.988976
4.988158
4.987058
4.985782
4.984753
4.984012
4.983627
4.984369
4.98433
4.983853
4.983713
4.983969
4.983893
4.98403
4.984147
4.984337
4.984469
4.984646
4.984754
4.984819
4.984838
4.984841
4.98486
4.98493
4.985068
4.985281
4.985566
4.985909
4.986279
4.986641
4.98698
4.987289
4.98764
4.987979
4.988339
4.988587
4.988844
4.988953
4.988868
4.988644
4.988105
4.987292
4.986282
4.984959
4.983592
4.982901
4.982743
4.98344
4.983862
4.983879
4.984236
4.984521
4.984536
4.984246
4.984306
4.984719
4.984942
4.985322
4.985645
4.985922
4.986132
4.986292
4.986428
4.986537
4.986654
4.986826
4.987032
4.987272
4.987522
4.987712
4.98786
4.987836
4.987766
4.98773
4.987789
4.987742
4.987796
4.987695
4.98736
4.987038
4.986464
4.985592
4.984664
4.983429
4.982032
4.981431
4.981441
4.98163
4.981451
4.981479
4.983706
4.98433
4.984712
4.98418
4.983939
4.984858
4.985188
4.985703
4.986236
4.98672
4.987114
4.987414
4.98764
4.987667
4.987624
4.987709
4.987944
4.988244
4.988429
4.988259
4.987838
4.987384
4.986919
4.986517
4.986247
4.986268
4.986155
4.985829
4.985317
4.984892
4.984691
4.983981
4.982738
4.981803
4.980791
4.980259
4.980456
4.981241
4.981604
4.981779
4.982148
4.982163
4.982997
4.983945
4.98525
4.986726
4.986021
4.984553
4.982612
4.982798
4.983571
4.984104
4.9846
4.98455
4.983959
4.983534
4.98317
4.983026
4.982494
4.981782
4.981392
4.981558
4.981207
4.977454
4.977681
4.979243
4.980605
4.98133
4.981586
4.982158
4.982672
4.982479
4.981266
4.980015
4.979344
4.981808
4.985
4.98684
4.986448
4.985909
4.980487
4.982955
4.983882
4.984394
4.984579
4.984815
4.984656
4.984442
4.983911
4.983964
4.98422
4.984383
4.984446
4.98451
4.984591
4.984917
4.985234
4.985263
4.984987
4.98463
4.984249
4.983833
4.983196
4.982482
4.98195
4.982402
4.98302
4.983675
4.983988
4.983975
4.983685