/*--------------------------------*- C++ -*----------------------------------*\
| =========                 |                                                 |
| \\      /  F ield         | OpenFOAM: The Open Source CFD Toolbox           |
|  \\    /   O peration     | Version:  2212                                  |
|   \\  /    A nd           | Website:  www.openfoam.com                      |
|    \\/     M anipulation  |                                                 |
\*---------------------------------------------------------------------------*/
FoamFile
{
    version     2.0;
    format      ascii;
    arch        "LSB;label=32;scalar=64";
    class       surfaceScalarField;
    location    "1000";
    object      phi;
}
// * * * * * * * * * * * * * * * * * * * * * * * * * * * * * * * * * * * * * //

dimensions      [1 0 -1 0 0 0 0];

oriented        oriented;

internalField   nonuniform List<scalar> 
281600
(
0.009245611
0.02347802
0.03572309
0.008233918
0.006317303
-0.006157349
0.006846918
0.002096479
-0.003524496
0.007913089
0.0007825698
-0.002411285
0.01038967
0.000673396
-0.003140558
0.01287797
-0.0004152037
-0.00214772
0.009780149
-0.004305031
0.007301873
-0.0008660803
-0.008828766
0.01935745
-0.01474187
-0.01433982
0.02808492
-0.02251369
-0.01484815
0.0224179
-0.02552239
-0.01410422
0.01692223
-0.02614633
-0.01286866
0.01352736
-0.02489449
-0.01112557
0.01021096
-0.02188974
-0.009371584
0.007022511
-0.0170371
-0.007649313
0.003751148
-0.01023142
-0.006012665
0.0004423844
-0.004112675
-0.005606248
0.0009195285
0.002487967
-0.005152495
0.0002809748
0.009736373
-0.0036785
-0.001784387
0.01496836
-0.002538466
-0.001212077
0.01903915
-0.001730887
-0.001133078
0.02423216
-0.0006321093
-0.003456451
0.03053389
-2.127656e-05
-0.005236245
0.03015072
-0.002750786
0.004161746
0.02570699
-0.00450638
0.00997775
0.01891911
-0.006393411
0.01403917
0.01038134
-0.009757708
0.01899516
0.005848728
-0.0138919
0.01895613
0.004777991
-0.01475056
0.01608645
0.004939928
-0.0136921
0.01341628
0.005198934
-0.01303045
0.01238944
0.003628419
-0.01376861
0.01471784
-0.001486144
-0.01610126
0.02033729
-0.009078485
-0.01888522
0.02532334
-0.01684543
-0.02078275
0.02721581
-0.01934842
-0.01933399
0.02037347
-0.01539428
-0.01553537
0.009861843
-0.005597519
-0.01162132
-0.0002637494
0.004082734
-0.01087066
-0.001171446
-0.008140722
0.0101368
-0.006434181
0.02072576
0.008548871
-0.001951786
0.01078673
-0.01297993
0.005305001
0.01112098
-0.0175134
0.009996774
0.01099397
-0.01484904
0.01212766
0.009469666
-0.01092076
0.01268653
0.006256728
-0.007301207
0.009506838
0.0007036369
-0.001947898
9.115103e-05
-0.006295698
0.006583921
-0.01226708
-0.01271877
0.01017713
-0.02002931
-0.01436262
0.006797689
-0.02366264
-0.01381062
0.003255303
-0.02445611
-0.0119952
0.000343892
-0.02311825
-0.009131855
-0.002385451
-0.01995673
-0.005898781
-0.005189827
-0.01510272
-0.002740605
-0.007894492
-0.008849873
7.541358e-05
-0.01015623
-0.002793919
0.001747345
-0.0108744
0.003407498
0.00341097
-0.01198505
0.00997832
0.005302325
-0.01302356
0.01577029
0.006234972
-0.01245015
0.02112167
0.006434758
-0.01160537
0.02671351
0.006232707
-0.01064242
0.03164734
0.005218513
-0.008405332
0.03337859
0.002134419
-0.004882376
0.03121975
-0.001610916
0.0007338804
0.02432731
-0.006522147
0.008331638
0.01216972
-0.01207396
0.01559911
0.00229493
-0.01792723
0.01465999
-0.001930025
-0.01954541
0.00920716
-0.003313835
-0.018753
0.006049321
-0.003729676
-0.01878474
0.00529407
-0.004838451
-0.01994452
0.005909147
-0.007669744
-0.02189566
0.006730447
-0.01177528
-0.02374418
0.006700005
-0.01601033
-0.02453974
0.0055028
-0.01643582
-0.02212668
0.0004052514
-0.01210635
-0.01737994
-0.005718661
-0.003208495
-0.01269249
-0.01141391
0.006310978
-0.01100462
-0.01275662
-0.01166847
0.007678445
-0.006478161
0.02038809
0.004619793
-0.002889878
0.01961406
-0.01362633
0.003344692
0.02088836
-0.01592559
0.007000479
0.02033302
-0.01246996
0.007712199
0.01758597
-0.008517528
0.006245717
0.01324649
-0.005586925
0.002721358
0.007949947
-0.004259409
-0.003271852
0.002013444
-0.003216545
-0.01011842
-0.002585202
-0.004196739
-0.01458181
-0.004078372
-0.006429393
-0.01688428
-0.003492326
-0.008229267
-0.01736473
-0.001525097
-0.009755602
-0.01606263
0.001420763
-0.01117286
-0.01331484
0.004727759
-0.01230305
-0.009437832
0.008056987
-0.0132516
-0.004569452
0.01083443
-0.01394434
0.0006269489
0.01281625
-0.0143846
0.006138183
0.01462448
-0.01480275
0.01186232
0.01588622
-0.0145904
0.01736933
0.01602105
-0.01373394
0.02264208
0.0152225
-0.01251091
0.02765935
0.01355397
-0.01074062
0.03146776
0.01079804
-0.007780478
0.03216549
0.006556348
-0.00351791
0.02854523
0.001107815
0.002575612
0.02048345
-0.00589225
0.009103966
0.009087851
-0.01282071
0.01355279
5.323131e-05
-0.01835169
0.01049058
-0.004821521
-0.0200253
0.006022107
-0.007396577
-0.01957439
0.003622923
-0.008744619
-0.01961901
0.001867408
-0.009681602
-0.02008818
0.0001769588
-0.0107933
-0.02080097
-0.001436057
-0.01185828
-0.02130184
-0.003304018
-0.0125454
-0.0211552
-0.005025614
-0.01095234
-0.01897101
-0.007431479
-0.006737698
-0.01514899
-0.009381198
-0.0009999437
-0.0107819
-0.01074492
0.003502194
-0.008114808
-0.01028452
-0.005043147
-0.0052324
-0.006221927
0.02274615
0.003214285
-0.003344387
0.02737552
-0.01030067
0.0005271781
0.02850074
-0.01088594
0.002432259
0.02730098
-0.008307382
0.001903374
0.02399613
-0.005727815
-0.0003928533
0.01956444
-0.00428034
-0.003557886
0.01499184
-0.004483995
-0.007155192
0.01128471
-0.006422574
-0.01028717
0.008945103
-0.009085988
-0.01224876
0.008250183
-0.0108826
-0.01304922
0.008958907
-0.01190594
-0.01277452
0.01066909
-0.01238059
-0.01131373
0.01303454
-0.01256193
-0.008739435
0.0157155
-0.01261683
-0.00518484
0.0184553
-0.012629
-0.0008830739
0.02081681
-0.01267717
0.003798731
0.0225896
-0.01267776
0.008738474
0.02382877
-0.01240555
0.01379328
0.02415913
-0.01167688
0.01871085
0.02332435
-0.01059203
0.02330244
0.02136233
-0.009081376
0.027191
0.01831459
-0.006942818
0.02940695
0.01413053
-0.003799122
0.02849598
0.008514332
0.0007375532
0.02379118
0.001410115
0.006234194
0.01546203
-0.006772516
0.01106366
0.006172458
-0.01367635
0.01183064
-0.0008337607
-0.01790305
0.007987332
-0.005436887
-0.01943834
0.00494302
-0.008461605
-0.01935049
0.003099083
-0.01042974
-0.01908627
0.001104309
-0.01150389
-0.01864812
-0.001290921
-0.01182963
-0.01819403
-0.003724089
-0.01127459
-0.01768375
-0.006083786
-0.00973245
-0.01708276
-0.00795583
-0.006253197
-0.01569193
-0.009521284
-0.0004679207
-0.01371396
-0.0103975
0.00614702
-0.01136978
-0.009348187
0.009895686
-0.009945299
-0.004921414
-0.008574984
0.01143609
-0.005634744
0.02532724
0.003286829
-0.00444947
0.03258121
-0.005648177
-0.002942085
0.0333635
-0.005615474
-0.00283262
0.03187096
-0.004097719
-0.004251469
0.02862099
-0.002972205
-0.00652331
0.02489203
-0.003150398
-0.008818323
0.02160244
-0.004677361
-0.01047355
0.01936144
-0.006910929
-0.01134728
0.01828386
-0.008948047
-0.011502
0.01823949
-0.01021503
-0.01093086
0.01902792
-0.01083262
-0.00966721
0.02043402
-0.01097495
-0.007731593
0.02230186
-0.010872
-0.00513397
0.02437137
-0.01064927
-0.001842798
0.02640816
-0.01039104
0.002004255
0.02815097
-0.01013075
0.006126373
0.02934264
-0.009739893
0.01037837
0.02982374
-0.009093062
0.01460699
0.02929883
-0.008191652
0.01862229
0.02757491
-0.007068771
0.02217179
0.02460898
-0.005569948
0.02472978
0.02042352
-0.003399652
0.02531992
0.01504633
-0.0002028648
0.02291229
0.008259761
0.003975206
0.01747666
-0.0002270531
0.008393031
0.01002772
-0.008396116
0.01028611
0.003418499
-0.01395017
0.007906375
-0.001370005
-0.01711574
0.004744058
-0.005025151
-0.01857861
0.003119151
-0.007812902
-0.01887318
0.002184094
-0.009915363
-0.0185884
0.001022621
-0.01119361
-0.01775891
-0.0006141506
-0.01156124
-0.01661261
-0.002608623
-0.01070783
-0.01537093
-0.004942062
-0.008389648
-0.01427394
-0.007283881
-0.004039214
-0.01310755
-0.009482719
0.002257792
-0.01187828
-0.01094845
0.008299253
-0.01034909
-0.009805648
0.01036772
-0.009310319
-0.005325228
-0.007214071
0.006926724
-0.00516956
0.0269303
0.004005125
-0.006064198
0.03549218
-0.0012102
-0.006643785
0.0358945
-0.001210014
-0.007860467
0.0343987
-0.0007356595
-0.009514193
0.031642
-0.001004188
-0.01109254
0.02892373
-0.00229818
-0.01212527
0.02688254
-0.004266005
-0.01240384
0.0257515
-0.006235215
-0.01198098
0.0254144
-0.00770957
-0.01099262
0.02566377
-0.008535359
-0.009525492
0.0263587
-0.008840925
-0.007646901
0.02738194
-0.008758123
-0.00537138
0.02867824
-0.008450951
-0.002679518
0.03008042
-0.008056165
0.000423446
0.03142272
-0.007634199
0.003827123
0.03247664
-0.007144535
0.007342239
0.03298493
-0.006509959
0.01083625
0.03272641
-0.005702496
0.01415476
0.03143743
-0.004730379
0.01711618
0.02892817
-0.003566652
0.01941711
0.02512137
-0.002053997
0.02046448
0.02006198
6.986097e-05
0.01955012
0.01374461
0.002926548
0.01601541
0.006091065
0.006359413
0.01065201
-0.002718166
0.008416936
0.005199025
-0.009435982
0.006845276
0.001132635
-0.01331752
0.003582598
-0.001874891
-0.0158181
0.001602187
-0.004451155
-0.01724292
0.0008860225
-0.006678689
-0.01780272
0.0005471183
-0.008535878
-0.01771066
0.0001057284
-0.009814736
-0.01697568
-0.0006210685
-0.01027776
-0.01570671
-0.001798779
-0.009466935
-0.01413357
-0.003657592
-0.006896304
-0.01264881
-0.006087065
-0.00200157
-0.01150203
-0.008705467
0.005057709
-0.01058344
-0.0107059
0.01225304
-0.00975039
-0.009935023
0.01460682
-0.009747195
-0.003832875
-0.008888375
0.01483636
-0.005240725
0.02713662
0.005495893
-0.007877667
0.03640895
0.002608913
-0.01002949
0.03651524
0.002185028
-0.01198765
0.03518818
0.001735607
-0.01349268
0.03314597
0.0004688154
-0.01429615
0.03146233
-0.001393971
-0.01431451
0.03043274
-0.003320417
-0.01360637
0.03004912
-0.004897539
-0.0123193
0.03010372
-0.005933506
-0.01061656
0.03040021
-0.006425529
-0.00860438
0.03084904
-0.006489259
-0.006361526
0.03141778
-0.006241663
-0.003920202
0.03213063
-0.005812339
-0.001258494
0.03288865
-0.005327757
0.001603452
0.03356512
-0.004795491
0.004550949
0.0339327
-0.004135578
0.007450413
0.03373032
-0.003326905
0.01016077
0.03274539
-0.002374434
0.01250033
0.03077504
-0.001301453
0.01425335
0.02762834
-7.464979e-05
0.01513767
0.02320384
0.001387504
0.01474179
0.01754477
0.003202421
0.01250505
0.01088034
0.005274736
0.008712788
0.003336223
0.006585324
0.004521503
-0.004104157
0.005394165
0.001373377
-0.008747852
0.00208579
-0.0006965433
-0.01163095
-0.0002047136
-0.002420663
-0.01374438
-0.001106429
-0.004105869
-0.01509442
-0.001339674
-0.005716717
-0.01577192
-0.001429615
-0.007171694
-0.01587401
-0.001511385
-0.008321326
-0.01537142
-0.001690067
-0.008898026
-0.01424705
-0.002225453
-0.008330029
-0.01260875
-0.003557445
-0.005881676
-0.01090137
-0.005807153
-0.0008695809
-0.009731467
-0.00856435
0.00676577
-0.009043036
-0.01098816
0.01524063
-0.009246661
-0.01060335
0.01774839
-0.0106595
-0.003160633
-0.01181217
0.01950806
-0.005677489
0.02591166
0.00743319
-0.009616683
0.0355129
0.005750825
-0.01278709
0.03547085
0.004827244
-0.01504794
0.03445335
0.003631047
-0.01628364
0.03320705
0.001762064
-0.01645933
0.0324157
-0.0003004982
-0.01574054
0.03212264
-0.002065859
-0.0143721
0.03217855
-0.003286405
-0.0125547
0.03235839
-0.00396823
-0.0104513
0.03251812
-0.004196529
-0.00816581
0.03262024
-0.004084087
-0.005773538
0.03269647
-0.003725585
-0.003312929
0.03282631
-0.003215142
-0.0007750895
0.03295737
-0.002648643
0.001808049
0.03297073
-0.001998364
0.004316289
0.03264427
-0.001189626
0.006595945
0.03175097
-0.0002326141
0.008476149
0.03014529
0.0008124281
0.00978088
0.02768895
0.001879273
0.01028508
0.02422788
0.002973972
0.009705065
0.01967229
0.004136261
0.007892276
0.0140738
0.005204708
0.005093246
0.008297213
0.005135506
0.002180039
0.002293525
0.003430082
-0.0001634744
-0.003297924
0.0007714517
-0.001396991
-0.006667913
-0.001774999
-0.002188525
-0.009124026
-0.002790112
-0.003061991
-0.01101465
-0.003017408
-0.004031369
-0.01229191
-0.003077946
-0.005000884
-0.01297382
-0.003146447
-0.005925884
-0.01312919
-0.003182739
-0.006765806
-0.0127514
-0.003166506
-0.007363938
-0.01180957
-0.003237845
-0.007177549
-0.0103246
-0.003866221
-0.005241609
-0.00864669
-0.005553513
-0.0006652818
-0.007262525
-0.008345274
0.006649403
-0.006388053
-0.01111
0.01442649
-0.006448307
-0.01147627
0.01683384
-0.00788655
-0.006107534
-0.009042785
0.01322939
-0.006196334
0.02302234
0.00966432
-0.01110055
0.03263738
0.008717753
-0.01486301
0.03268669
0.007223148
-0.01718096
0.03217055
0.005375012
-0.01810853
0.03174453
0.00310581
-0.01782099
0.0316563
0.001044301
-0.01664293
0.03180686
-0.0004643519
-0.01489876
0.03201739
-0.001360579
-0.01281996
0.03210687
-0.001757122
-0.01055458
0.0319927
-0.001789262
-0.008193103
0.03168695
-0.001564069
-0.005800252
0.03126213
-0.001150174
-0.003418518
0.03083144
-0.0006061497
-0.001061039
0.03038244
-3.628908e-06
0.001233794
0.02978655
0.000689425
0.003310269
0.02886934
0.001534567
0.004996404
0.02746074
0.002477588
0.006106084
0.02551894
0.003415246
0.006402061
0.02300997
0.004286131
0.005583465
0.01982816
0.005102054
0.003422922
0.015889
0.005774132
0.0005990004
0.01153632
0.005069656
-0.001096351
0.007686405
0.001755351
-0.002586949
0.002761119
0.0001115571
-0.003488425
-0.001608606
-0.001878401
-0.003724251
-0.004317392
-0.003300829
-0.003824849
-0.006396243
-0.003918036
-0.004043251
-0.008028525
-0.004167461
-0.004340324
-0.00912674
-0.004360369
-0.004639863
-0.009663343
-0.004561782
-0.004958886
-0.009706392
-0.004679589
-0.005402068
-0.009358615
-0.004519867
-0.005990937
-0.008715347
-0.004031581
-0.006211227
-0.007738519
-0.003768773
-0.004567627
-0.006312503
-0.005128778
-1.934189e-05
-0.004641626
-0.007996151
0.007415266
-0.003484603
-0.01080689
0.01604978
-0.003180047
-0.01203452
0.02024225
-0.005496531
-0.006727182
-0.009931429
0.02077276
-0.006749484
0.01782903
0.01257555
-0.01225052
0.02714161
0.01203652
-0.01625704
0.02782856
0.009690474
-0.01849443
0.02812549
0.007213902
-0.01913216
0.02853966
0.004666029
-0.01850936
0.02897918
0.002677488
-0.01708013
0.02932545
0.001449601
-0.01519256
0.02945894
0.0008441312
-0.01307158
0.02930365
0.0006590788
-0.01084272
0.02885052
0.0007358616
-0.008576904
0.02815544
0.0009778834
-0.006326366
0.02730848
0.001345915
-0.004128975
0.0264266
0.0018178
-0.002004721
0.02552958
0.002338551
5.924342e-07
0.0244999
0.002916766
0.001728592
0.02322689
0.003593277
0.002957849
0.02161877
0.004343031
0.003448934
0.01972346
0.005082387
0.002884945
0.01764518
0.005738889
0.0009251028
0.01527333
0.0063325
-0.002150795
0.0123825
0.006359277
-0.004741883
0.009408121
0.004367819
-0.005733408
0.00663879
0.001432413
-0.006193876
0.00303245
-0.0007028141
-0.006265915
3.551597e-05
-0.002623215
-0.005998501
-0.001996899
-0.003774776
-0.005653417
-0.003628202
-0.004455759
-0.00536164
-0.004902583
-0.004909456
-0.005085558
-0.005716253
-0.00529858
-0.004782291
-0.006062884
-0.005600417
-0.004539472
-0.00605912
-0.005639596
-0.004614769
-0.005918939
-0.005127073
-0.005198306
-0.00577579
-0.004038927
-0.005563656
-0.005330778
-0.003455191
-0.003861398
-0.003983545
-0.004977538
0.0006686179
-0.002059832
-0.007485269
0.00809418
-0.000660094
-0.01008007
0.01739326
-0.0001665639
-0.01181092
0.02168401
-0.00334877
-0.00612386
-0.0103468
0.02211486
-0.007103393
0.008164524
0.01750269
-0.01297676
0.01779194
0.01642329
-0.01696084
0.02024069
0.01260542
-0.01901838
0.02186487
0.009390785
-0.01944182
0.02326189
0.006583392
-0.01864893
0.02417554
0.00462472
-0.01715806
0.02462671
0.003545844
-0.01532426
0.02462059
0.003074233
-0.01334507
0.02421101
0.002949336
-0.01130965
0.02347183
0.002998664
-0.009259788
0.02250046
0.003136197
-0.007234095
0.02139405
0.003347334
-0.005274917
0.02025255
0.003647345
-0.003419323
0.01910317
0.004016326
-0.001723268
0.01786168
0.004431384
-0.0002843895
0.01644577
0.004899267
0.0007217667
0.01485554
0.005398373
0.0009603565
0.01325033
0.005966641
-0.0001498305
0.01171749
0.006854437
-0.002857119
0.009927149
0.007920761
-0.006030053
0.007930144
0.007476004
-0.008230818
0.006310924
0.005030169
-0.009087216
0.004878732
0.002142581
-0.009187052
0.003090195
-0.0006494626
-0.008874172
0.00147008
-0.002626738
-0.00832304
0.0002102301
-0.003826351
-0.007693887
-0.000890814
-0.004624764
-0.007046164
-0.0017664
-0.005228414
-0.006350377
-0.002325016
-0.005695029
-0.005599237
-0.002605394
-0.005951545
-0.004949101
-0.00275183
-0.005804184
-0.00472781
-0.002928053
-0.005094882
-0.005044101
-0.003093014
-0.004108298
-0.005047054
-0.002754307
-0.003916111
-0.003326632
-0.001410628
-0.005015395
0.0008758863
0.0005388493
-0.006767232
0.007991114
0.002045825
-0.009073095
0.01736877
0.002702025
-0.01109574
0.02168637
-0.0007329041
-0.006124425
-0.008950105
0.02060976
-0.008329672
-0.006578691
0.02393154
-0.01279034
-0.000114785
0.02369054
-0.01614213
0.007723501
0.01711152
-0.01831645
0.01277106
0.01245195
-0.01887906
0.01566343
0.009058848
-0.01819516
0.01716867
0.006875017
-0.0168634
0.01784537
0.005668286
-0.01525924
0.01785623
0.005066541
-0.01356146
0.01737391
0.004779576
-0.01183094
0.01655097
0.004631364
-0.01008328
0.01551891
0.004544968
-0.008340863
0.01437167
0.004524598
-0.006645068
0.01317286
0.004618984
-0.00505074
0.01193602
0.004847302
-0.003628647
0.0106351
0.005157669
-0.002455293
0.009221749
0.00551281
-0.00165438
0.00776372
0.005887526
-0.001647037
0.006416787
0.006576958
-0.003119482
0.005176009
0.007909394
-0.005797056
0.004017507
0.008565179
-0.008365338
0.003322477
0.00714263
-0.01015346
0.003172033
0.004792345
-0.01110186
0.00310017
0.002445979
-0.0113598
0.002817684
7.834804e-05
-0.01108992
0.002392425
-0.001829678
-0.01050407
0.001884267
-0.003105032
-0.009743793
0.00132492
-0.004041787
-0.008860788
0.0008179486
-0.00475361
-0.007859369
0.0004373908
-0.005257258
-0.006772504
0.0001545785
-0.005523588
-0.005785979
-8.482892e-05
-0.005469217
-0.005134076
-0.0003005609
-0.005121688
-0.004803111
-0.000405092
-0.004667532
-0.004292697
-7.7324e-05
-0.004381754
-0.00255719
0.001069256
-0.004721856
0.001352737
0.002805907
-0.005851448
0.008088519
0.004311542
-0.007844613
0.01763674
0.004926973
-0.01008897
0.02251474
0.001232203
-0.005458789
-0.008036411
0.02224754
-0.008096135
-0.01787686
0.02026576
-0.01149702
-0.01921159
0.0238251
-0.01423419
-0.009455913
0.02115724
-0.01620362
-0.001099578
0.01704223
-0.01695101
0.004580177
0.01268883
-0.01669029
0.007739006
0.009608838
-0.01584092
0.009289039
0.007758542
-0.01472117
0.009781517
0.006650404
-0.01347573
0.009602706
0.005925083
-0.01215263
0.009032744
0.005382732
-0.01075643
0.008242131
0.004940383
-0.009304783
0.00732548
0.004602859
-0.007872956
0.006340989
0.004423955
-0.006557399
0.005316368
0.004401198
-0.005433208
0.004278555
0.004450053
-0.004538125
0.003221413
0.004481566
-0.003945719
0.002215372
0.00452141
-0.004020813
0.001318637
0.004943649
-0.005199587
0.0005650993
0.005740243
-0.007096266
0.0002045372
0.005770636
-0.008960687
0.0004257594
0.00484851
-0.01055264
0.001000264
0.00380445
-0.01175563
0.00162747
0.002623799
-0.01246337
0.0021775
0.001166141
-0.0125496
0.002536152
-0.0004085965
-0.01212007
0.002623893
-0.001726002
-0.01136189
0.002531846
-0.002759143
-0.01036798
0.002359728
-0.003575774
-0.009180689
0.002185013
-0.004211348
-0.007859372
0.002030001
-0.004682415
-0.006549542
0.001931948
-0.004958779
-0.005394991
0.00193936
-0.00503169
-0.004408918
0.002088157
-0.004902459
-0.003410134
0.002481208
-0.004531901
-0.001657883
0.003373129
-0.004372158
0.00187216
0.004796547
-0.005005845
0.008053566
0.006182839
-0.006676925
0.01730129
0.006594806
-0.009043434
0.02241639
0.002796398
-0.005235133
-0.006820162
0.02196444
-0.006561745
-0.0232472
0.01265322
-0.008811185
-0.02919746
0.01335608
-0.01056336
-0.02267195
0.0159945
-0.01264029
-0.01489212
0.01688434
-0.01408079
-0.007863042
0.01456657
-0.01446468
-0.003069408
0.01144656
-0.01415087
-0.0002376834
0.009039204
-0.01349139
0.001223478
0.007328226
-0.01266255
0.001831035
0.006057846
-0.01171538
0.001951623
0.005041276
-0.01065513
0.001800056
0.004176454
-0.009498942
0.001496849
0.003439967
-0.008326329
0.001126194
0.002856397
-0.00723575
0.0007445011
0.002404669
-0.00628495
0.0003664411
0.002045783
-0.005511486
-4.173612e-05
0.001777889
-0.004988854
-0.0004666217
0.001683171
-0.00498132
-0.0008877978
0.001968396
-0.005778665
-0.001206955
0.002554756
-0.007199146
-0.001199573
0.002959358
-0.008802132
-0.0008404313
0.003081342
-0.01034396
-0.0002832333
0.003050689
-0.01165076
0.0003787884
0.002738889
-0.01257965
0.001142247
0.002058445
-0.0130267
0.001900785
0.00103426
-0.01290613
0.00246112
-0.0002014214
-0.01225391
0.002759351
-0.001351375
-0.01124668
0.00291615
-0.00228194
-0.009980534
0.003036217
-0.003079308
-0.008509665
0.003148932
-0.003764338
-0.006928198
0.003318013
-0.004281061
-0.005368721
0.003641991
-0.004575231
-0.003906103
0.004090465
-0.004578863
-0.002481374
0.004620068
-0.004280844
-0.0006572546
0.005372125
-0.003955599
0.002503096
0.00649211
-0.004192329
0.008020693
0.007606648
-0.005424047
0.01668948
0.007700291
-0.007798292
0.0222237
0.003750597
-0.005067606
-0.006450788
0.02259677
-0.005493044
-0.02605204
0.008853136
-0.00610313
-0.03360943
0.005787882
-0.007293844
-0.02930322
0.008543837
-0.00962798
-0.02301335
0.01113662
-0.0115096
-0.01670561
0.01115221
-0.01240558
-0.01173494
0.009626993
-0.01254126
-0.008263692
0.007811499
-0.01222607
-0.006021819
0.006182398
-0.01166699
-0.004602805
0.004821476
-0.01094506
-0.003683812
0.003661905
-0.01009639
-0.003045373
0.002644857
-0.009154869
-0.002557641
0.001748179
-0.008179316
-0.002147333
0.0009948984
-0.007247546
-0.00177529
0.000409835
-0.006433253
-0.001462734
1.664355e-05
-0.005775146
-0.001293556
-0.0001772289
-0.005338914
-0.001292092
-0.0001200682
-0.005322538
-0.001428099
0.000284783
-0.005948893
-0.00158697
0.001012043
-0.007187016
-0.001611531
0.00184283
-0.008740817
-0.001475857
0.002507865
-0.01023328
-0.001181488
0.002777651
-0.01143263
-0.0007345595
0.002712117
-0.01229266
-8.862367e-05
0.002443035
-0.01283335
0.0007357643
0.001948048
-0.01297093
0.001581711
0.001092627
-0.01256064
0.002267232
-4.680129e-05
-0.0116226
0.002783101
-0.001158599
-0.01032346
0.003237128
-0.002082346
-0.008757025
0.00368628
-0.002889565
-0.006990792
0.004158714
-0.003528679
-0.005149601
0.004791777
-0.003928503
-0.00332597
0.005533548
-0.004052952
-0.001558414
0.006222349
-0.003829851
0.0003712611
0.006944364
-0.003453965
0.00319101
0.007858126
-0.003408064
0.007911887
0.008697061
-0.004246335
0.01560465
0.008551061
-0.006589533
0.0214663
0.004399032
-0.00520725
-0.007676862
0.02334144
-0.00526826
-0.02738653
0.007035635
-0.004558893
-0.03496444
0.001069847
-0.004706544
-0.03223911
0.003469188
-0.006643971
-0.02746727
0.006742232
-0.008789304
-0.02213401
0.007771119
-0.01030037
-0.01747189
0.007177401
-0.01104873
-0.01385434
0.005937638
-0.01119946
-0.01121517
0.004620014
-0.01093452
-0.00926893
0.003417577
-0.01038776
-0.007752624
0.002355458
-0.009644372
-0.006471109
0.001412574
-0.008778228
-0.005308635
0.0005862853
-0.007883609
-0.004212263
-9.018041e-05
-0.007062343
-0.003187031
-0.0005665438
-0.006393361
-0.00229126
-0.0008325915
-0.005881803
-0.001656737
-0.0009251679
-0.005568706
-0.001338818
-0.0007894387
-0.005596928
-0.001308851
-0.00034477
-0.006172252
-0.001474848
0.0004721356
-0.007371778
-0.001714601
0.00153527
-0.008929444
-0.001932862
0.002412306
-0.01037967
-0.00196168
0.002734587
-0.01141974
-0.001759739
0.002623941
-0.01206598
-0.001327631
0.002445703
-0.0124916
-0.0006491147
0.002307682
-0.01268515
0.0002530616
0.001898424
-0.01246849
0.001254707
0.001005502
-0.01170414
0.002181493
-0.0001481077
-0.01042627
0.002998415
-0.001225539
-0.008788835
0.003802761
-0.002126874
-0.006873983
0.004589705
-0.002854305
-0.004802326
0.005499246
-0.003328031
-0.002701208
0.006490815
-0.003504959
-0.0006305964
0.00733513
-0.003365634
0.001462848
0.008134
-0.003041167
0.003948309
0.009005819
-0.002772221
0.007675747
0.00968836
-0.003212277
0.01393956
0.009409456
-0.005391076
0.01911111
0.005245677
-0.005061459
-0.008277864
0.02022865
-0.005364634
-0.02786709
0.006107726
-0.003677256
-0.03480149
-0.00174874
-0.002842988
-0.03298263
1.483913e-06
-0.004186831
-0.02954977
0.003485429
-0.006269711
-0.02528219
0.005208168
-0.008055594
-0.02120371
0.005322835
-0.009149915
-0.01773688
0.004553765
-0.009585659
-0.01496456
0.003527754
-0.009520019
-0.01271878
0.002523079
-0.009108792
-0.01080469
0.001625109
-0.008470712
-0.009068844
0.000843369
-0.007715339
-0.007417014
0.0001903878
-0.006976615
-0.005810302
-0.0002939748
-0.006388336
-0.004269087
-0.0005872165
-0.006012065
-0.002857144
-0.0007608181
-0.005790034
-0.001763627
-0.0008820949
-0.005731254
-0.00112435
-0.0008069089
-0.005954735
-0.0009543419
-0.0004020221
-0.006629508
-0.001213549
0.0004070696
-0.007835212
-0.001754333
0.001476249
-0.009353183
-0.002365283
0.002370981
-0.01074582
-0.002720361
0.002707024
-0.01165703
-0.002756601
0.002549741
-0.01206628
-0.002514899
0.002284294
-0.01220667
-0.002024351
0.002198809
-0.01223998
-0.001210703
0.002119343
-0.01207052
-5.690195e-05
0.001652535
-0.01147796
0.001266447
0.0006863842
-0.01031744
0.002499458
-0.000461583
-0.008650276
0.00364825
-0.001466786
-0.006603745
0.004754923
-0.002287528
-0.004334567
0.005928606
-0.00282863
-0.001996573
0.00711201
-0.003034055
0.0002791539
0.008110765
-0.002929062
0.002371586
0.00910965
-0.00262006
0.004463816
0.01011032
-0.00228133
0.007216849
0.01084108
-0.002535133
0.01185047
0.0106785
-0.004463049
0.01575035
0.006957197
-0.004943067
-0.006245737
0.01420157
-0.005723028
-0.02801624
0.005925426
-0.003443351
-0.03413263
-0.003237368
-0.001581601
-0.03259052
-0.002466481
-0.002113029
-0.03013211
0.0008735162
-0.003876007
-0.02683813
0.003062192
-0.005717191
-0.02343905
0.003735121
-0.00700229
-0.02029917
0.00337277
-0.007615115
-0.0175937
0.002620113
-0.007664477
-0.015253
0.001825423
-0.007319247
-0.0131551
0.001133617
-0.006731221
-0.0111973
0.0005840786
-0.006049816
-0.009302131
0.0001958378
-0.005458819
-0.007424409
3.388432e-06
-0.005156032
-0.005553778
-1.652476e-06
-0.005211376
-0.003717177
1.86785e-05
-0.005474929
-0.002102722
-0.0001510592
-0.005838196
-0.00103237
-0.0002785921
-0.006402033
-0.0006720046
-2.368319e-05
-0.00727895
-0.001031875
0.0006384291
-0.008493208
-0.001892783
0.001527522
-0.009908274
-0.002844796
0.00227023
-0.01118976
-0.003477075
0.002566491
-0.01199755
-0.00371704
0.00241014
-0.01223227
-0.003603757
0.002050124
-0.01206453
-0.003224838
0.00180983
-0.0117758
-0.00252146
0.001806968
-0.0114753
-0.001384661
0.001774076
-0.0109805
0.0001892794
0.001254527
-0.009983609
0.001829134
0.0002435249
-0.00836432
0.003333385
-0.0008438142
-0.006202395
0.004740534
-0.001778252
-0.003700446
0.006173611
-0.002430165
-0.001087402
0.007547029
-0.002719236
0.001355904
0.008754762
-0.002663983
0.003364979
0.01004752
-0.002345466
0.005038932
0.01130873
-0.001989185
0.006887692
0.01231797
-0.002171739
0.009862937
0.01257689
-0.003742874
0.01203595
0.009948862
-0.004607888
-0.0007374235
0.007036182
-0.006219027
-0.02804449
0.006060152
-0.003503066
-0.03322882
-0.004276407
-0.0007823165
-0.03168114
-0.004159076
-0.0004473549
-0.02976273
-0.001268572
-0.001692387
-0.02729989
0.001190592
-0.003400654
-0.02458226
0.002345066
-0.004736677
-0.02185869
0.002366086
-0.005437841
-0.01935136
0.001882464
-0.005539268
-0.01707321
0.001287348
-0.005202476
-0.01497447
0.0007855797
-0.004601466
-0.01300859
0.000451735
-0.003914991
-0.01110518
0.0003053355
-0.003370292
-0.009201606
0.0003865866
-0.00327465
-0.007241457
0.0007423319
-0.003804198
-0.005197851
0.00120036
-0.004733226
-0.003138681
0.001249037
-0.005778195
-0.001532589
0.0009856364
-0.006876703
-0.0008261277
0.000900586
-0.008036904
-0.001172618
0.001166844
-0.00925868
-0.002236405
0.001641006
-0.01049066
-0.003395673
0.002054003
-0.01154504
-0.004198293
0.002210003
-0.01219509
-0.004528726
0.002035927
-0.01230061
-0.004445043
0.001641337
-0.01192672
-0.004076156
0.001270662
-0.01133726
-0.003432559
0.001188975
-0.0107956
-0.002429352
0.001414112
-0.01031724
-0.0008987367
0.001530535
-0.009494288
0.001000494
0.0009067569
-0.007973992
0.002844366
-0.0001770723
-0.005702569
0.004552463
-0.001279661
-0.002903558
0.006320004
-0.002190149
7.209917e-05
0.007994615
-0.002709445
0.002703637
0.009473041
-0.002680518
0.00463811
0.01108896
-0.002298363
0.005952296
0.01269093
-0.001923615
0.007049082
0.01413451
-0.002041955
0.008587536
0.01502863
-0.003211129
0.009095262
0.01387828
-0.004029275
0.006223811
0.002519798
-0.006692306
-0.02771805
0.005953756
-0.003612956
-0.0320276
-0.005267722
-0.0002494895
-0.03045997
-0.005422979
0.0008812738
-0.02882868
-0.002957984
0.0002630486
-0.02701429
-0.0004496556
-0.0011634
-0.0249376
0.001115393
-0.002442616
-0.02266545
0.001518885
-0.003180422
-0.02044045
0.001323653
-0.00331756
-0.0183378
0.0009275484
-0.002985208
-0.01636388
0.000577605
-0.002358133
-0.01452464
0.0003755283
-0.001612913
-0.01275413
0.0003381633
-0.0009713793
-0.01097074
0.0005045143
-0.0008094842
-0.009094907
0.001022561
-0.001532768
-0.007094913
0.001937472
-0.003143089
-0.004937867
0.002756696
-0.005234516
-0.002994376
0.002996627
-0.007231825
-0.001847179
0.002623455
-0.008871934
-0.001933474
0.002182585
-0.01013517
-0.002900048
0.001885808
-0.01109369
-0.004016153
0.001716418
-0.01178688
-0.004759135
0.001557929
-0.0121625
-0.004990583
0.00129998
-0.01211139
-0.004812129
0.0009320547
-0.0116139
-0.00435357
0.0005414912
-0.01083503
-0.003702727
0.0003854484
-0.01006956
-0.002866047
0.0006827275
-0.009542686
-0.001639417
0.001318838
-0.008874987
0.0002278297
0.001279057
-0.007435159
0.002322716
0.0002845791
-0.005011158
0.004372654
-0.001057428
-0.001799915
0.00655069
-0.002305295
0.001592417
0.008584556
-0.002962851
0.004362875
0.01035682
-0.002826659
0.006227264
0.01226533
-0.002356692
0.007295763
0.01421414
-0.001972704
0.00790163
0.01613293
-0.00203153
0.008495144
0.01769226
-0.002813802
0.007934188
0.01788138
-0.003232371
0.01238466
0.001927265
-0.007074428
-0.02682138