/*--------------------------------*- C++ -*----------------------------------*\
| =========                 |                                                 |
| \\      /  F ield         | OpenFOAM: The Open Source CFD Toolbox           |
|  \\    /   O peration     | Version:  2212                                  |
|   \\  /    A nd           | Website:  www.openfoam.com                      |
|    \\/     M anipulation  |                                                 |
\*---------------------------------------------------------------------------*/
FoamFile
{
    version     2.0;
    format      ascii;
    arch        "LSB;label=32;scalar=64";
    class       volScalarField;
    location    "1000";
    object      T;
}
// * * * * * * * * * * * * * * * * * * * * * * * * * * * * * * * * * * * * * //

dimensions      [0 0 0 1 0 0 0];

internalField   nonuniform List<scalar> 
96000
(
299.8881
300.0014
300.0341
300.0207
299.9908
299.9698
299.9594
299.964
299.9733
299.9689
299.9651
299.9653
299.9674
299.971
299.9769
299.9873
300.0013
300.0114
300.0067
300.0018
300.0019
300.0027
300.0012
300.0046
300.0113
300.0201
300.0417
300.0581
300.0584
300.0403
300.0168
299.9985
299.9885
299.9848
299.9818
299.9732
299.9599
299.9467
299.9404
299.9559
300.0038
300.0454
300.0178
299.9881
299.9675
299.953
299.9436
299.9371
299.9438
299.9474
299.9495
299.9523
299.9582
299.9666
299.977
299.9895
300.0057
300.0103
300.0051
300.0049
300.0059
300.0055
300.0043
300.0072
300.0157
300.0376
300.0589
300.0631
300.045
300.0187
300.0002
299.9882
299.9803
299.9753
299.9699
299.9609
299.9492
299.9389
299.9358
299.9567
300.0264
300.0191
299.991
299.9747
299.9655
299.9546
299.9301
299.9157
299.9286
299.9378
299.9422
299.9457
299.9512
299.9583
299.9665
299.9767
299.9873
299.9906
299.9897
299.9912
299.9939
299.9962
299.9983
300.0048
300.0209
300.0376
300.0461
300.0387
300.0168
299.9997
299.9898
299.982
299.9763
299.9717
299.9666
299.9602
299.9534
299.9469
299.9449
299.9616
300.0113
299.9953
299.9782
299.9675
299.9605
299.952
299.9406
299.9357
299.9368
299.9373
299.9383
299.9409
299.9467
299.9546
299.9633
299.9719
299.9783
299.9804
299.9819
299.9847
299.9885
299.9931
299.9992
300.0108
300.0274
300.0394
300.0418
300.0331
300.0116
299.996
299.9867
299.9791
299.9738
299.9697
299.9654
299.9603
299.9543
299.9504
299.9498
299.9644
299.9941
299.9823
299.9729
299.9672
299.9643
299.9611
299.9565
299.9511
299.9466
299.9436
299.9426
299.9438
299.9474
299.9525
299.9585
299.9641
299.9676
299.9697
299.972
299.9753
299.9798
299.9861
299.9957
300.0097
300.0254
300.0282
300.026
300.0186
300.0023
299.9919
299.986
299.9814
299.978
299.9745
299.9703
299.9658
299.9621
299.9625
299.9651
299.9764
299.9852
299.9775
299.9728
299.9711
299.9705
299.9682
299.964
299.9586
299.9535
299.9498
299.9475
299.9469
299.948
299.9502
299.9531
299.9558
299.9578
299.9596
299.9619
299.9653
299.9701
299.9774
299.9878
300.0032
300.0121
300.0076
300.0064
300.0009
299.992
299.9878
299.9863
299.9863
299.9871
299.9869
299.9853
299.9833
299.9811
299.9792
299.9819
299.9977
299.9828
299.9783
299.976
299.9761
299.9757
299.9729
299.9683
299.9631
299.9582
299.9541
299.9511
299.9493
299.9484
299.9482
299.9482
299.9487
299.9494
299.9506
299.9525
299.9556
299.9602
299.9669
299.977
299.9885
299.9882
299.985
299.9852
299.9821
299.9807
299.9824
299.9863
299.9922
299.9989
300.0042
300.0072
300.0088
300.0057
300.0002
300.0012
300.0127
299.9847
299.9834
299.9814
299.9822
299.9812
299.9777
299.9728
299.9675
299.9625
299.9581
299.9545
299.9517
299.9493
299.9468
299.9443
299.9426
299.942
299.9423
299.9434
299.9456
299.9488
299.9528
299.9556
299.9585
299.9599
299.9605
299.9617
299.9641
299.9696
299.9776
299.9878
300.0005
300.0149
300.0284
300.0368
300.0369
300.0298
300.0204
300.0171
300.0257
299.9904
299.9921
299.9891
299.9899
299.9881
299.984
299.9787
299.9731
299.9677
299.9629
299.9586
299.9547
299.9508
299.9464
299.9416
299.9377
299.9353
299.9341
299.9337
299.9337
299.933
299.9261
299.9153
299.9246
299.9325
299.9363
299.9406
299.9482
299.9591
299.9733
299.9912
300.0131
300.0383
300.0616
300.0696
300.0634
300.0543
300.0402
300.0372
300.0624
300.0002
300.0053
299.9997
299.9997
299.9971
299.9923
299.9866
299.9806
299.9747
299.9691
299.9638
299.9587
299.9535
299.9475
299.9407
299.934
299.9284
299.9245
299.9215
299.9183
299.912
299.8984
299.8922
299.9003
299.9082
299.9145
299.9221
299.9333
299.9489
299.97
299.9974
300.0312
300.0682
300.0945
300.0941
300.0839
300.0738
300.0523
300.0444
300.068
300.0168
300.026
300.0159
300.0134
300.0093
300.0035
299.9971
299.9905
299.9837
299.9771
299.9706
299.9643
299.9578
299.9505
299.9421
299.9328
299.9234
299.9152
299.9107
299.9111
299.9074
299.8954
299.8865
299.886
299.8907
299.897
299.9064
299.9204
299.9406
299.9685
300.0052
300.0481
300.0885
300.1094
300.107
300.0985
300.0898
300.067
300.0574
300.0756
300.0433
300.058
300.042
300.0348
300.0277
300.0196
300.0117
300.0037
299.9955
299.9873
299.9792
299.9711
299.9632
299.9549
299.9456
299.935
299.9234
299.9142
299.9127
299.9136
299.906
299.8941
299.8854
299.8814
299.8824
299.8877
299.8976
299.9133
299.9364
299.9682
300.0086
300.0517
300.0882
300.1089
300.1126
300.1093
300.1014
300.0781
300.075
300.1016
300.0439
300.062
300.0616
300.0652
300.0573
300.0445
300.0326
300.0216
300.0106
299.9996
299.9886
299.978
299.9679
299.9578
299.9466
299.9336
299.9195
299.9081
299.9028
299.8988
299.8931
299.8894
299.8875
299.8858
299.8849
299.8889
299.8977
299.9127
299.9352
299.9658
300.0035
300.0423
300.0753
300.0987
300.111
300.1132
300.1055
300.0815
300.08
300.1097
300.0233
300.0298
300.0406
300.0643
300.0717
300.0647
300.0536
300.0411
300.0273
300.0131
299.9988
299.9847
299.9709
299.957
299.9422
299.9265
299.9106
299.8975
299.8895
299.8862
299.8863
299.8894
299.893
299.8953
299.8965
299.8981
299.9041
299.9161
299.935
299.961
299.9934
300.0276
300.0583
300.084
300.1021
300.1092
300.1037
300.0802
300.0776
300.1103
300.0072
300.0048
300.013
300.0308
300.0428
300.0468
300.0448
300.0379
300.0275
300.0153
300.0019
299.9879
299.9734
299.9585
299.9432
299.9275
299.9126
299.9005
299.8929
299.8904
299.8922
299.8963
299.9011
299.9053
299.9089
299.9111
299.9143
299.9221
299.9364
299.9571
299.9838
300.013
300.0407
300.0659
300.0863
300.0972
300.094
300.0725
300.0681
300.1123
299.9948
299.9866
299.993
300.0049
300.0143
300.0191
300.0198
300.0169
300.0114
300.0042
299.9956
299.9859
299.9753
299.9636
299.951
299.9376
299.9248
299.9141
299.9073
299.9052
299.9064
299.9087
299.9115
299.9151
299.9196
299.9231
299.9257
299.9302
299.9398
299.955
299.9756
299.9994
300.0224
300.0439
300.0626
300.0749
300.0738
300.0557
300.0503
300.102
299.9839
299.9737
299.979
299.9869
299.9934
299.998
300.0001
300
299.9983
299.9952
299.9911
299.9861
299.9801
299.9728
299.9638
299.953
299.9425
299.9338
299.9282
299.9257
299.9248
299.9245
299.9246
299.926
299.9292
299.9332
299.9364
299.9393
299.9444
299.9541
299.9681
299.9856
300.0032
300.0188
300.0322
300.043
300.0442
300.0309
300.0249
300.065
299.9757
299.9639
299.9668
299.9718
299.9767
299.9814
299.9847
299.9868
299.988
299.9884
299.9884
299.9879
299.9868
299.9848
299.9807
299.9735
299.9646
299.9574
299.9525
299.949
299.9459
299.9429
299.9402
299.9388
299.9394
299.9423
299.946
299.9486
299.9505
299.9543
299.9612
299.9713
299.9826
299.9926
300.0015
300.0094
300.012
300.0047
300.0004
300.0199
299.9695
299.955
299.956
299.958
299.9619
299.9669
299.9714
299.9753
299.9787
299.9821
299.9854
299.9889
299.9926
299.9964
299.999
299.9974
299.9912
299.9841
299.9783
299.9732
299.9679
299.9626
299.9574
299.9532
299.951
299.9518
299.9551
299.9585
299.9581
299.956
299.9553
299.9568
299.9614
299.9675
299.9737
299.9794
299.9828
299.981
299.9802
299.9909
299.9635
299.9463
299.946
299.9456
299.9485
299.9538
299.9593
299.9646
299.9699
299.9753
299.981
299.9871
299.9942
300.0028
300.0123
300.0192
300.0196
300.0129
300.0046
299.9964
299.9881
299.9801
299.9728
299.9666
299.9622
299.9606
299.9625
299.9662
299.9653
299.9579
299.9497
299.9423
299.9414
299.946
299.9509
299.9554
299.9593
299.9617
299.9646
299.9725
299.9573
299.9382
299.9372
299.9347
299.9369
299.9424
299.9484
299.9546
299.961
299.9677
299.9745
299.9816
299.9898
300.0002
300.014
300.0298
300.04
300.0381
300.0273
300.0141
300.0018
299.992
299.9845
299.978
299.9721
299.9681
299.9667
299.9672
299.9652
299.9555
299.9423
299.9294
299.926
299.9302
299.9344
299.9384
299.9426
299.9472
299.9525
299.9604
299.9512
299.9312
299.9296
299.9252
299.9271
299.9334
299.9401
299.9466
299.9534
299.9602
299.9668
299.9736
299.9815
299.9922
300.0066
300.0245
300.0425
300.0493
300.0389
300.0224
300.0078
299.9979
299.9919
299.9866
299.9804
299.9743
299.9696
299.9667
299.9627
299.9515
299.935
299.9201
299.9169
299.9205
299.9243
299.928
299.9325
299.9378
299.9441
299.9525
299.9455
299.9255
299.9234
299.9169
299.9183
299.9256
299.9334
299.9406
299.9474
299.9539
299.96
299.9661
299.9736
299.9836
299.9965
300.0126
300.0316
300.0447
300.0381
300.0215
300.0068
299.9981
299.9953
299.9927
299.9873
299.9801
299.973
299.9676
299.961
299.9478
299.9296
299.9154
299.9135
299.9165
299.9197
299.9233
299.9278
299.9334
299.9401
299.9485
299.9404
299.9214
299.9186
299.91
299.9102
299.918
299.927
299.935
299.9422
299.9486
299.9543
299.9598
299.9661
299.9742
299.9846
299.9979
300.0143
300.0288
300.0273
300.0129
299.9993
299.9936
299.9949
299.9957
299.992
299.9848
299.9767
299.9695
299.9602
299.9456
299.927
299.9151
299.9148
299.9169
299.9195
299.923
299.9274
299.9333
299.9398
299.9475
299.9363
299.9189
299.9154
299.9045
299.9029
299.9104
299.9205
299.9295
299.9372
299.9437
299.9491
299.9537
299.9582
299.9637
299.9713
299.9816
299.9948
300.0085
300.011
299.9996
299.9883
299.9862
299.9915
299.9951
299.993
299.9865
299.9786
299.9704
299.9599
299.9451
299.9287
299.9203
299.9196
299.9206
299.9228
299.9261
299.9305
299.9365
299.9423
299.949
299.9333
299.9183
299.9141
299.9008
299.8966
299.903
299.9141
299.924
299.9322
299.9388
299.9437
299.9473
299.9502
299.953
299.9573
299.9642
299.9744
299.9861
299.9911
299.9837
299.9758
299.9778
299.986
299.9909
299.9898
299.9845
299.9781
299.9708
299.9609
299.947
299.934
299.9284
299.9267
299.9269
299.9287
299.9317
299.9362
299.942
299.947
299.9527
299.9322
299.9201
299.9148
299.8987
299.8912
299.8955
299.9073
299.9181
299.9268
299.9333
299.9378
299.9403
299.9415
299.942
299.943
299.9465
299.9536
299.9625
299.9687
299.9668
299.9633
299.9693
299.9786
299.9838
299.9841
299.9819
299.9787
299.9734
299.9644
299.9525
299.9429
299.9379
299.9355
299.9351
299.9365
299.9392
299.9438
299.9492
299.9534
299.9585
299.935
299.9252
299.9172
299.8979
299.8866
299.8877
299.8994
299.9112
299.9202
299.9267
299.9307
299.9323
299.9319
299.9303
299.9288
299.929
299.9327
299.9388
299.9461
299.9511
299.9526
299.9607
299.9707
299.9778
299.9818
299.9835
299.9826
299.9784
299.9705
299.9607
299.9532
299.9483
299.9454
299.9447
299.9459
299.9483
299.9528
299.9578
299.9616
299.9665
299.9463
299.935
299.9209
299.899
299.8836
299.88
299.8904
299.9026
299.912
299.9184
299.922
299.9227
299.921
299.9179
299.9142
299.9116
299.9121
299.9152
299.9234
299.9363
299.9441
299.9543
299.9678
299.9783
299.9851
299.9886
299.9889
299.9854
299.9784
299.9706
299.9641
299.9593
299.9565
299.9556
299.9565
299.9587
299.9629
299.9676
299.9715
299.9769
299.9581
299.9463
299.9294
299.9085
299.8902
299.8805
299.8867
299.8971
299.9055
299.911
299.9137
299.9135
299.9109
299.9062
299.9002
299.8954
299.8928
299.8931
299.9005
299.9156
299.9306
299.9473
299.9675
299.9821
299.9908
299.9952
299.9959
299.9932
299.9876
299.9813
299.9757
299.9714
299.9686
299.9676
299.9682
299.9704
299.9742
299.9788
299.9832
299.9891
299.965
299.9544
299.9408
299.9246
299.9081
299.8965
299.8982
299.9047
299.9101
299.9131
299.9137
299.9118
299.9072
299.8998
299.8909
299.8824
299.8752
299.8723
299.8779
299.8912
299.9107
299.9367
299.9638
299.9831
299.995
300.0019
300.0046
300.0031
299.9988
299.9936
299.9887
299.9847
299.9821
299.981
299.9814
299.9835
299.987
299.9908
299.9932
299.9963
299.97
299.9607
299.9507
299.9382
299.9256
299.9154
299.9147
299.9181
299.9206
299.9211
299.9194
299.9153
299.9084
299.8984
299.8862
299.8732
299.862
299.8574
299.8622
299.8764
299.8996
299.9288
299.9577
299.9825
300.0019
300.0141
300.0191
300.0182
300.0143
300.0092
300.0042
300.0001
299.9973
299.9961
299.9965
299.9986
300.0016
300.0033
300.002
299.9971
299.9739
299.9658
299.9584
299.948
299.9384
299.93
299.928
299.9292
299.9295
299.9278
299.9241
299.918
299.9093
299.8977
299.884
299.87
299.8595
299.8558
299.8606
299.8749
299.8976
299.9254
299.9547
299.9843
300.0085
300.0268
300.0378
300.0407
300.0369
300.0305
300.024
300.0189
300.0153
300.0135
300.0137
300.0163
300.0198
300.0237
300.0208
300.0121
299.9771
299.9699
299.9634
299.9542
299.9468
299.9402
299.938
299.9376
299.9361
299.9327
299.9273
299.9198
299.91
299.8982
299.8852
299.8734
299.8655
299.863
299.8667
299.8786
299.8995
299.9259
299.9543
299.9844
300.0143
300.0396
300.0566
300.0644
300.0629
300.0562
300.0483
300.0414
300.0362
300.0329
300.033
300.0373
300.0465
300.0558
300.0464
300.0389
299.9789
299.9705
299.9655
299.9571
299.9518
299.9473
299.9456
299.9441
299.941
299.9363
299.9296
299.9211
299.9108
299.8992
299.8875
299.8781
299.8723
299.8705
299.8735
299.885
299.9059
299.9315
299.9578
299.9845
300.0113
300.0363
300.0575
300.0716
300.077
300.075
300.0695
300.0633
300.058
300.0534
300.0532
300.061
300.0827
300.0838
300.0494
300.0486
299.9773
299.9653
299.9635
299.9565
299.9543
299.9525
299.9512
299.9488
299.9445
299.9386
299.9312
299.9223
299.912
299.901
299.8903
299.882
299.8775
299.877
299.8821
299.8959
299.9175
299.9428
299.9665
299.989
300.0114
300.0328
300.0523
300.0671
300.0756
300.078
300.0763
300.0732
300.0715
300.0704
300.0712
300.0833
300.105
300.0749
300.0433
300.0409
299.9719
299.954
299.9562
299.953
299.9559
299.9564
299.9557
299.9528
299.9477
299.9412
299.9332
299.9241
299.9142
299.904
299.8945
299.888
299.8861
299.889
299.8961
299.9092
299.9313
299.9562
299.9781
299.998
300.0167
300.0335
300.0488
300.0608
300.068
300.0709
300.0708
300.0696
300.0699
300.0726
300.0786
300.0938
300.1064
300.0617
300.0329
300.022
299.9633
299.9396
299.9453
299.949
299.9568
299.9585
299.9584
299.9559
299.9503
299.9433
299.9347
299.9254
299.9158
299.9067
299.8993
299.897
299.9004
299.9063
299.9142
299.928
299.9492
299.9722
299.9912
300.0081
300.0244
300.0374
300.0472
300.0554
300.0598
300.06
300.059
300.0576
300.0572
300.0596
300.0667
300.0831
300.0948
300.0579
300.0285
300.0127
299.9532
299.9271
299.9348
299.9454
299.9567
299.9595
299.9592
299.9577
299.9514
299.9434
299.934
299.9239
299.9144
299.9075
299.9056
299.9099
299.9159
299.9225
299.933
299.9504
299.9698
299.9876
300.003
300.0195
300.0366
300.0502
300.0545
300.0601
300.0629
300.0592
300.0562
300.0529
300.0503
300.0493
300.0526
300.0638
300.076
300.0631
300.033
300.0171
299.9529
299.9321
299.9348
299.9456
299.9583
299.9646
299.9641
299.9633
299.9566
299.9491
299.9422
299.9344
299.9273
299.9248
299.9277
299.9319
299.9367
299.9454
299.9598
299.982
300.0123
300.0201
300.0212
300.036
300.0553
300.0634
300.0626
300.07
300.0731
300.0662
300.0579
300.0504
300.0487
300.0435
300.0443
300.0506
300.0606
300.0567
300.0314
300.013
299.9764
300.0284
300.0196
299.9999
299.981
299.9633
299.9527
299.9604
299.9776
299.9697
299.9623
299.9619
299.9645
299.9698
299.9794
299.9919
300.0019
300.0017
300.0017
300.0063
300.0097
300.0089
300.0038
300.0261
300.0444
300.0499
300.0568
300.0561
300.0483
300.0301
300.0077
299.9921
299.9878
299.9906
299.9913
299.9777
299.9573
299.9462
299.9503
299.9683
300.0398
300.0221
299.9952
299.9802
299.9696
299.9587
299.9485
299.9457
299.948
299.9436
299.9458
299.9515
299.961
299.9694
299.9757
299.9793
299.9832
299.9858
299.9882
299.992
299.9947
299.9947
299.9952
300.0011
300.0127
300.0273
300.0333
300.0256
300.0098
299.9959
299.9862
299.98
299.9761
299.9732
299.9685
299.9595
299.9513
299.9451
299.9383
299.962
300.0351
300.0023
299.9828
299.9736
299.9689
299.963
299.9539
299.9486
299.9478
299.9488
299.9521
299.9558
299.9595
299.9626
299.965
299.9677
299.9708
299.9733
299.9759
299.9791
299.9822
299.9843
299.9871
299.9941
300.0052
300.0111
300.0133
300.0048
299.9918
299.9833
299.978
299.974
299.9721
299.9709
299.9686
299.9655
299.9629
299.9587
299.9501
299.9609
300.0131
299.9907
299.9778
299.9697
299.9651
299.9615
299.9577
299.9548
299.953
299.9522
299.9523
299.953
299.9546
299.9568
299.9594
299.9622
299.9649
299.9675
299.9704
299.9739
299.9779
299.9824
299.988
299.9957
299.9999
300.0019
300.002
299.9955
299.9857
299.9788
299.9744
299.9709
299.9698
299.9695
299.9689
299.9681
299.9673
299.9652
299.9561
299.9717
299.9974
299.9854
299.9768
299.9711
299.9675
299.9642
299.9607
299.9573
299.9545
299.9523
299.9511
299.9508
299.9514
299.9529
299.955
299.9572
299.9594
299.9618
299.9646
299.968
299.9721
299.9774
299.9843
299.9897
299.992
299.9918
299.9899
299.9854
299.9796
299.9755
299.9729
299.9711
299.9707
299.9705
299.9703
299.9702
299.9707
299.9704
299.9639
299.9743
299.9897
299.9839
299.978
299.9749
299.9721
299.9685
299.9644
299.9602
299.9564
299.9533
299.9513
299.9502
299.9501
299.9507
299.9518
299.9532
299.9549
299.9568
299.9593
299.9625
299.9665
299.9716
299.977
299.9814
299.9825
299.9814
299.9792
299.9767
299.9744
299.9728
299.9721
299.9725
299.9737
299.9746
299.975
299.9757
299.9766
299.9763
299.9728
299.9955
299.9891
299.9844
299.9811
299.9801
299.9778
299.9737
299.9688
299.9638
299.9593
299.9556
299.9529
299.9511
299.9502
299.9498
299.9498
299.9503
299.9511
299.9525
299.9545
299.9573
299.9608
299.965
299.969
299.9719
299.9723
299.9711
299.9698
299.9691
299.9691
299.9697
299.9713
299.9738
299.9766
299.9786
299.9797
299.9809
299.9819
299.9824
299.9823
300.013
299.9921
299.9882
299.9862
299.9866
299.9844
299.9798
299.974
299.9682
299.9631
299.9589
299.9557
299.9533
299.9516
299.9502
299.9491
299.9485
299.9485
299.9491
299.9505
299.9529
299.9559
299.9585
299.9597
299.9611
299.9617
299.9611
299.9611
299.9624
299.9645
299.9672
299.9707
299.9746
299.9785
299.9818
299.9837
299.985
299.9862
299.9872
299.9877
300.0261
299.9994
299.995
299.9934
299.9943
299.9916
299.9862
299.9798
299.9735
299.968
299.9634
299.9597
299.9568
299.9543
299.9521
299.9502
299.9486
299.9476
299.9474
299.9482
299.95
299.9519
299.9517
299.9501
299.9521
299.9529
299.9534
299.9547
299.9571
299.9606
299.9649
299.9696
299.9747
299.9799
299.9846
299.9867
299.988
299.9893
299.9903
299.9974
300.0697
300.011
300.0054
300.0024
300.0027
299.9989
299.9926
299.9856
299.979
299.9733
299.9684
299.9644
299.961
299.958
299.9553
299.9527
299.9504
299.9487
299.9478
299.9479
299.9489
299.9496
299.9479
299.9462
299.9464
299.9468
299.9478
299.9498
299.953
299.9574
299.9627
299.9685
299.9749
299.9815
299.9864
299.9884
299.9901
299.9916
299.9921
300.0018
300.0682
300.0292
300.0207
300.014
300.0119
300.0062
299.9988
299.9914
299.9846
299.9787
299.9736
299.9693
299.9655
299.9622
299.9592
299.9564
299.9538
299.9515
299.9501
299.9504
299.9518
299.9512
299.9479
299.9449
299.9432
299.943
299.9443
299.9467
299.9504
299.9552
299.9612
299.9678
299.9749
299.9815
299.9862
299.9888
299.9913
299.9932
299.9939
300.0058
300.0829
300.0487
300.041
300.0285
300.0226
300.0142
300.0052
299.9972
299.9901
299.9839
299.9785
299.9738
299.9696
299.966
299.9629
299.96
299.9574
299.9551
299.9538
299.9543
299.9544
299.9517
299.948
299.9449
299.9427
299.9421
299.9433
299.9458
299.9495
299.9544
299.9603
299.967
299.9737
299.9799
299.9849
299.9886
299.9917
299.9934
299.9936
300.0088
300.0928
300.043
300.043
300.039
300.0338
300.0231
300.012
300.0028
299.995
299.9882
299.9823
299.9771
299.9724
299.9685
299.965
299.9619
299.9589
299.9562
299.9543
299.9534
299.9522
299.9501
299.9481
299.9464
299.9448
299.9439
299.9447
299.9469
299.9502
299.9547
299.96
299.9659
299.9718
299.9774
299.9826
299.9871
299.9906
299.9921
299.9917
300.0073
300.0891
300.0262
300.0213
300.026
300.0309
300.0256
300.0152
300.0057
299.9976
299.9905
299.9844
299.9788
299.9739
299.9695
299.9656
299.962
299.9587
299.9558
299.9536
299.9521
299.9511
299.9501
299.9495
299.9488
299.9481
299.9475
299.9476
299.9491
299.9519
299.9556
299.9601
299.965
299.97
299.9748
299.9797
299.9843
299.9881
299.9898
299.9889
300.0036
300.0895
300.0124
300.0017
300.0045
300.0114
300.0122
300.0073
300.0011
299.9949
299.9891
299.9837
299.9787
299.9741
299.9699
299.9661
299.9626
299.9595
299.9568
299.9548
299.9536
299.9528
299.9524
299.9521
299.9518
299.9516
299.9514
299.9515
299.9521
299.954
299.9569
299.9604
299.9644
299.9684
299.9723
299.9765
299.9807
299.9846
299.9862
299.9848
299.9977
300.0841
299.997
299.9839
299.9877
299.9935
299.9956
299.9945
299.9918
299.9884
299.9847
299.9809
299.9772
299.9737
299.9703
299.9672
299.9643
299.9617
299.9594
299.9578
299.9567
299.9563
299.956
299.9556
299.9551
299.9549
299.955
299.9552
299.9555
299.9564
299.9583
299.9608
299.9637
299.9667
299.9697
299.9729
299.9764
299.9799
299.9815
299.9794
299.99
300.0572
299.9816
299.9696
299.9739
299.9786
299.9815
299.9827
299.9825
299.9814
299.9797
299.9777
299.9755
299.9733
299.9712
299.9692
299.9672
299.9651
299.9632
299.9618
299.961
299.9606
299.9602
299.9595
299.9587
299.9581
299.958
299.9583
299.9586
299.9588
299.9596
299.961
299.9627
299.9646
299.9667
299.9689
299.9713
299.9741
299.9756
299.9734
299.9806
300.0253
299.9697
299.9593
299.9621
299.9659
299.9695
299.9723
299.974
299.9747
299.9748
299.9744
299.9738
299.9731
299.9724
299.9716
299.9708
299.9695
299.968
299.9667
299.966
299.9654
299.9647
299.9636
299.9623
299.9611
299.9606
299.9606
299.961
299.961
299.9608
299.9609
299.9613
299.962
299.963
299.9642
299.9657
299.9676
299.9687
299.9672
299.9715
299.9983
299.9614
299.951
299.9524
299.9552
299.9592
299.9631
299.9662
299.9685
299.97
299.9712
299.972
299.9727
299.9734
299.9742
299.9748
299.9746
299.9738
299.9725
299.9714
299.9703
299.969
299.9674
299.9655
299.9638
299.9626
299.9622
299.9626
299.9629
299.962
299.9608
299.9598
299.959
299.9588
299.959
299.9597
299.9606
299.9613
299.9607
299.963
299.9764
299.9545
299.9437
299.9448
299.9466
299.9506
299.9552
299.9593
299.9627
299.9655
299.9679
299.97
299.9718
299.9736
299.9756
299.9778
299.9796
299.9802
299.9791
299.9771
299.9747
299.9724
299.9701
299.9679
299.9657
299.9639
299.9631
299.9631
299.9636
299.9627
299.9604
299.9579
299.9557
299.9544
299.954
299.9538
299.9538
299.9539
299.9538
299.9549
299.9619
299.9483
299.9377
299.939
299.9401
299.9437
299.9486
299.9534
299.9576
299.9613
299.9645
299.9674
299.9701
299.9726
299.9754
299.9788
299.9826
299.9854
299.9854
299.9823
299.9781
299.9743
299.9713
299.9689
299.9666
299.9646
299.9632
299.9626
299.9626
299.9618
299.959
299.9556
299.9524
299.9506
299.9496
299.9488
299.948
299.9474
299.9471
299.9474
299.9537
299.9434
299.9333
299.9347
299.9353
299.9386
299.9434
299.9483
299.9529
299.9571
299.9609
299.9643
299.9673
299.9703
299.9737
299.9777
299.9825
299.9873
299.989
299.9855
299.9797
299.9746
299.9712
299.9688
299.9667
299.9647
299.9629
299.9618
299.9613
299.9603
299.9573
299.9533
299.9497
299.9477
299.9463
299.945
299.9437
299.9425
299.9418
299.9418
299.949
299.9401
299.9305
299.9319
299.9318
299.9348
299.9394
299.9442
299.9488
299.9531
299.9571
299.9607
299.964
299.9673
299.9708
299.9749
299.9798
299.9851
299.9882
299.9854
299.9789
299.9732
299.9696
299.9676
299.966
299.9642
299.9625
299.9611
299.9602
299.9588
299.9555
299.9514
299.948
299.946
299.9444
299.9429
299.9413
299.9398
299.939
299.9391
299.9476
299.9383
299.9292
299.9305
299.9296
299.9321
299.9364
299.9409
299.9452
299.9494
299.9534
299.9569
299.9601
299.9633
299.9667
299.9705
299.975
299.9799
299.9834
299.9816
299.9756
299.97
299.9667
299.9653
299.9644
299.9631
299.9617
299.9603
299.9592
299.9575
299.9543
299.9505
299.9475
299.9457
299.9441
299.9426
299.941
299.9397
299.9392
299.9394
299.9486
299.938
299.9294
299.9303
299.9287
299.9305
299.9343
299.9385
299.9427
299.9467
299.9502
299.9533
299.9561
299.9587
299.9615
299.9648
299.9687
299.973
299.9763
299.9754
299.9704
299.9654
299.9627
299.9621
299.962
299.9614
299.9604
299.9594
299.9583
299.9567
299.9539
299.9508
299.9484
299.9467
299.9453
299.9441
299.9428
299.942
299.9422
299.9424
299.9517
299.9396
299.9312
299.9316
299.9291
299.93
299.9332
299.9371
299.9411
299.9447
299.9477
299.9501
299.9522
299.954
299.956
299.9583
299.9613
299.9649
299.9679
299.9678
299.9642
299.9601
299.9583
299.9586
299.9592
299.9592
299.9588
299.9584
299.9578
299.9566
299.9545
299.9522
299.9504
299.9491
299.9481
299.9474
299.9466
299.9464
299.9473
299.9476
299.9569
299.944
299.9345
299.9342
299.9307
299.9306
299.9329
299.9366
299.9401
299.9432
299.9456
299.9474
299.9486
299.9495
299.9503
299.9515
299.9535
299.9564
299.9591
299.9596
299.9575
299.9546
299.954
299.9552
299.9564
299.9571
299.9577
299.9582
299.9582
299.9575
299.9562
299.9547
299.9535
299.9526
299.9522
299.952
299.9518
299.9525
299.9539
299.9545
299.9636
299.9536
299.939
299.9376
299.9332
299.9319
299.9334
299.9366
299.9396
299.9422
299.944
299.9451
299.9454
299.9453
299.9451
299.9452
299.9462
299.9483
299.9505
299.9515
299.9509
299.9495
299.9501
299.9522
299.9545
299.9564
299.9579
299.959
299.9595
299.9594
299.9588
299.9581
299.9575
299.9572
299.9573
299.9578
299.9581
299.9596
299.9616
299.963
299.9723
299.9701
299.9446
299.9416
299.9366
299.934
299.9344
299.937
299.9395
299.9415
299.9428
299.9432
299.9428
299.9419
299.9407
299.9398
299.9399
299.9412
299.9427
299.9438
299.9444
299.9449
299.9469
299.9506
299.9539
299.9567
299.9589
299.9606
299.9616
299.9621
299.9622
299.9623
299.9625
299.9628
299.9635
299.9645
299.9655
299.9678
299.9705
299.9732
299.9832
299.9799
299.9513
299.9468
299.9419
299.9382
299.937
299.9384
299.9402
299.9415
299.942
299.9419
299.9409
299.9393
299.9374
299.9356
299.9351
299.9353
299.936
299.937
299.9383
299.9405
299.9445
299.9496
299.954
299.9575
299.9604
299.9626
299.9643
299.9656
299.9666
299.9675
299.9685
299.9695
299.9708
299.9723
299.974
299.977
299.9806
299.9849
299.9949
299.9778
299.9579
299.9532
299.9486
299.9445
299.9422
299.9423
299.943
299.9433
299.9431
299.9422
299.9406
299.9385
299.9358
299.9332
299.9316
299.9308
299.9307
299.9316
299.9335
299.9372
299.9426
299.9485
299.954
299.9587
299.9627
299.9658
299.9682
299.9702
299.9721
299.9739
299.9756
299.9775
299.9795
299.9815
299.9842
299.9874
299.991
299.9944
300.0005
299.9744
299.9624
299.9592
299.9548
299.9509
299.9482
299.9474
299.9471
299.9466
299.9455
299.9439
299.9418
299.9391
299.936
299.9327
299.9299
299.9281
299.9275
299.9284
299.9311
299.9356
299.9414
299.9478
299.9547
299.9613
299.9668
299.9709
299.9739
299.9765
299.9789
299.9815
299.9842
299.9871
299.9898
299.9927
299.9958
299.9989
300.0015
300.0019
300.0018
299.9746
299.9666
299.9637
299.9596
299.9562
299.9535
299.9521
299.9511
299.9497
299.9479
299.9457
299.9429
299.9399
299.9365
299.9332
299.9303
299.9283
299.9274
299.9282
299.9308
299.9351
299.9407
299.9475
299.9556
299.964
299.9713
299.977
299.9812
299.9844
299.9874
299.9907
299.9944
299.9981
300.0017
300.0053
300.0089
300.0122
300.0137
300.0137
300.0181
299.9758
299.9687
299.9662
299.9628
299.9602
299.9579
299.9563
299.9547
299.9526
299.9501
299.9471
299.9439
299.9404
299.937
299.9338
299.9313
299.9296
299.9288
299.9292
299.9315
299.9356
299.941
299.9475
299.9555
299.9646
299.9733
299.981
299.9873
299.9923
299.9965
300.0009
300.0058
300.0104
300.0146
300.0188
300.0233
300.0285
300.0282
300.0273
300.046
299.9749
299.9663
299.9662
299.9641
299.9629
299.9613
299.9597
299.9576
299.955
299.9518
299.9483
299.9445
299.9407
299.9371
299.9341
299.9319
299.9306
299.9301
299.9308
299.9334
299.9378
299.9432
299.9492
299.9561
299.9641
299.9726
299.9812
299.9894
299.9967
300.0033
300.0099
300.0169
300.0233
300.0279
300.0322
300.0383
300.046
300.0336
300.0234
300.0409
299.9704
299.9587
299.9633
299.9634
299.9639
299.9633
299.962
299.9596
299.9565
299.9528
299.9487
299.9446
299.9406
299.9369
299.9339
299.9319
299.9311
299.9313
299.9329
299.9364
299.9414
299.9472
299.9531
299.9595
299.9666
299.9743
299.9823
299.9904
299.9983
300.006
300.0141
300.0235
300.0335
300.0401
300.0439
300.0503
300.0544
300.0258
300.0142
300.0062
299.9622
299.9484
299.9575
299.9606
299.9629
299.9633
299.9628
299.9606
299.9573
299.9534
299.9492
299.9448
299.9406
299.9368
299.9337
299.932
299.9319
299.9332
299.9358
299.94
299.9458
299.9525
299.959
299.9655
299.9722
299.9791
299.986
299.993
300.0001
300.007
300.0148
300.0242
300.0347
300.0452
300.0503
300.0557
300.0547
300.0226
300.0086
299.9959
299.95
299.9362
299.949
299.9558
299.9603
299.9615
299.9622
299.9609
299.9575
299.9533
299.9486
299.9437
299.9389
299.9348
299.9318
299.9307
299.9319
299.9345
299.9382
299.9434
299.95
299.9578
299.9657
299.9732
299.9802
299.9869
299.9928
299.9989
300.0051
300.01
300.016
300.024
300.0308
300.04
300.0483
300.0529
300.0509
300.0192
300.0023
299.9942
299.9297
299.9161
299.9328
299.9446
299.9556
299.9588
299.96
299.9598
299.9557
299.9503
299.9444
299.9381
299.932
299.9278
299.9259
299.9268
299.9301
299.9351
299.9414
299.9492
299.9559
299.9651
299.9771
299.9885
299.9979
300.0068
300.0114
300.0173
300.0239
300.0258
300.0294
300.0338
300.0356
300.0377
300.042
300.0447
300.0449
300.0318
300.0162
300.0123
299.9399
299.9232
299.9304
299.9416
299.9549
299.9613
299.9619
299.9632
299.9587
299.9522
299.9466
299.9412
299.9357
299.9336
299.9357
299.9397
299.9464
299.9611
299.9827
299.9941
300.0082
300.0125
300.0162
300.0281
300.0451
300.0429
300.0437
300.0514
300.0564
300.0514
300.0483
300.0448
300.0512
300.0512
300.0547
300.0552
300.0521
300.0383
300.0248
300.0266
300.0176
300.0143
300.0004
299.9935
299.9832
299.9783
299.9679
299.9705
299.9852
299.9784
299.9687
299.9667
299.9677
299.9736
299.9817
299.9882
299.9926
299.9919
299.9959
300.0009
300.0002
299.9948
299.9912
300.0189
300.0363
300.0313
300.0263
300.0216
300.0159
300.0044
299.9923
299.9881
299.996
300.0094
300.0167
299.9944
299.9689
299.9681
299.9796
299.9965
300.0343
299.9997
299.9882
299.9823
299.9783
299.9736
299.9715
299.965
299.9637
299.9581
299.9579
299.9626
299.9689
299.9734
299.9759
299.9754
299.9742
299.975
299.9776
299.98
299.9812
299.9806
299.9814
299.9861
299.9942
299.9982
299.9992
299.9923
299.9836
299.9779
299.9757
299.976