/*--------------------------------*- C++ -*----------------------------------*\
| =========                 |                                                 |
| \\      /  F ield         | OpenFOAM: The Open Source CFD Toolbox           |
|  \\    /   O peration     | Version:  2212                                  |
|   \\  /    A nd           | Website:  www.openfoam.com                      |
|    \\/     M anipulation  |                                                 |
\*---------------------------------------------------------------------------*/
FoamFile
{
    version     2.0;
    format      ascii;
    arch        "LSB;label=32;scalar=64";
    class       volVectorField;
    location    "1000";
    object      U;
}
// * * * * * * * * * * * * * * * * * * * * * * * * * * * * * * * * * * * * * //

dimensions      [0 1 -1 0 0 0 0];

internalField   nonuniform List<vector> 
96000
(
(-0.0009915637 0.009448441 0.02039433)
(0.01849796 0.003393643 -0.002003788)
(0.01054585 -0.001257432 0.0002296397)
(0.01075282 -0.002170906 0.001372284)
(0.01248141 -0.002137431 0.0008342164)
(0.01427056 -0.002685974 0.001485047)
(0.01273438 -0.004716092 0.006272561)
(0.006274135 -0.00801522 0.01345118)
(-0.01015257 -0.01324742 0.01825284)
(-0.02055145 -0.01312059 0.01344628)
(-0.02480561 -0.01212177 0.00993151)
(-0.02629991 -0.01105126 0.008091079)
(-0.02604193 -0.009760319 0.006412074)
(-0.02429703 -0.00841459 0.00472169)
(-0.02093081 -0.007041977 0.002966837)
(-0.01522213 -0.005821233 0.001267356)
(-0.008991051 -0.005436334 0.000848127)
(-0.002586396 -0.004777426 4.255783e-05)
(0.005399669 -0.003761107 -0.00201016)
(0.01163513 -0.003179702 -0.002041529)
(0.01637349 -0.002545407 -0.001857001)
(0.02072115 -0.001552758 -0.002565602)
(0.02710146 -0.0008574248 -0.003440819)
(0.03141107 -0.00266307 0.0007058752)
(0.02880348 -0.003983803 0.003117584)
(0.02340189 -0.004978291 0.00526569)
(0.01548002 -0.00699418 0.009411943)
(0.007070452 -0.00909904 0.01007216)
(0.006744651 -0.008399248 0.007842076)
(0.006928836 -0.007639699 0.006485648)
(0.007428368 -0.007802699 0.006586363)
(0.006904486 -0.009211196 0.008482413)
(0.003264305 -0.01209489 0.0120693)
(-0.00352231 -0.01534869 0.01517485)
(-0.01238421 -0.01739955 0.01614565)
(-0.01823322 -0.01640825 0.01219699)
(-0.01679316 -0.01356091 0.006289516)
(-0.01012189 -0.01039613 0.0008126329)
(0.001995186 -0.009455567 -3.524144e-05)
(0.004327013 -0.005496678 0.006787002)
(-0.005013296 0.03116619 0.006206917)
(9.16119e-05 0.0106783 -0.007003032)
(0.005814845 0.00737206 -0.01095394)
(0.01090046 0.006142226 -0.009251216)
(0.01357936 0.004503954 -0.006510997)
(0.014296 0.001215562 -0.003667162)
(0.01273145 -0.004597161 0.0004129174)
(0.005896118 -0.01021752 0.00575166)
(-0.008198631 -0.0163077 0.006514352)
(-0.01761141 -0.01742515 0.00318464)
(-0.02263699 -0.01668393 0.001077296)
(-0.02464429 -0.01496999 -0.0003170548)
(-0.02433866 -0.01244638 -0.001631257)
(-0.02229618 -0.009652322 -0.00315179)
(-0.01868835 -0.006628871 -0.004866029)
(-0.01311281 -0.003390751 -0.006272001)
(-0.007119245 -0.00142181 -0.006453389)
(-0.000708516 0.000363702 -0.007232151)
(0.006190706 0.002181417 -0.008227953)
(0.01239106 0.003204617 -0.007861614)
(0.01790996 0.003799561 -0.007346566)
(0.02337123 0.004307958 -0.006943233)
(0.02900283 0.004190694 -0.006062771)
(0.03270838 0.00126626 -0.004877796)
(0.03302866 -0.001509818 -0.002679861)
(0.02948314 -0.004688366 0.001707525)
(0.02006446 -0.009040353 0.008041837)
(0.00632261 -0.01414795 0.008577255)
(0.001257395 -0.01553297 0.005044649)
(-0.001227811 -0.0152647 0.003232813)
(-0.00183505 -0.0158868 0.003030229)
(-0.002644925 -0.01783089 0.003604388)
(-0.004878054 -0.02084722 0.004191367)
(-0.008430104 -0.02374155 0.004175944)
(-0.01318437 -0.02546945 0.003384727)
(-0.01602215 -0.02362336 0.000479823)
(-0.01359238 -0.01921553 -0.003082162)
(-0.007492258 -0.01505876 -0.006820427)
(0.004226887 -0.01398662 -0.00773272)
(0.006546612 -0.01340361 0.003958362)
(-0.006611139 0.02188574 0.003631746)
(-0.00299565 0.01758523 -0.008340983)
(0.00331846 0.01754436 -0.01041253)
(0.007429233 0.01630983 -0.007822823)
(0.009099373 0.01326584 -0.004857323)
(0.008396336 0.008606111 -0.002611956)
(0.005610168 0.002261184 -0.001896884)
(-0.0006130175 -0.005757889 -0.001391531)
(-0.008217208 -0.01089529 -0.002604279)
(-0.01323176 -0.01205861 -0.004487631)
(-0.01615642 -0.01117879 -0.005779011)
(-0.01746586 -0.008817237 -0.006850609)
(-0.01709015 -0.005103728 -0.007868385)
(-0.01514374 -0.0009212249 -0.00860394)
(-0.01198919 0.003129781 -0.009093677)
(-0.007829852 0.006381198 -0.009261068)
(-0.002825235 0.008700215 -0.009331368)
(0.002787721 0.01089666 -0.009609169)
(0.008611524 0.0126144 -0.009502629)
(0.0142808 0.01319522 -0.008911429)
(0.01967004 0.0129992 -0.008164556)
(0.02486339 0.01215886 -0.007216899)
(0.0295632 0.01037046 -0.00573677)
(0.03214327 0.007242856 -0.003666412)
(0.03128097 0.003268662 -0.0004119055)
(0.02592844 -0.002354354 0.004413527)
(0.01591155 -0.008974613 0.008610038)
(0.004162274 -0.01505894 0.006381709)
(-0.001749133 -0.01729427 0.003209548)
(-0.00559874 -0.01753458 0.001883908)
(-0.00739117 -0.01850149 0.001119663)
(-0.00854032 -0.0201344 0.0004313933)
(-0.009634677 -0.02199107 -0.0003075033)
(-0.01065559 -0.02349013 -0.001342989)
(-0.01169835 -0.02403888 -0.002427406)
(-0.01132323 -0.0219602 -0.004046721)
(-0.008115671 -0.01792004 -0.005514917)
(-0.002775995 -0.01359872 -0.006678509)
(0.003441079 -0.01124182 -0.00589066)
(0.004656041 -0.009900416 -0.001402509)
(-0.005984599 0.02256871 0.002985141)
(-0.003992983 0.02503433 -0.006722197)
(0.0005605455 0.02560518 -0.007192732)
(0.002901176 0.023965 -0.005012254)
(0.003347064 0.02024364 -0.002906336)
(0.001531442 0.01511737 -0.001793323)
(-0.001861594 0.009593835 -0.002360448)
(-0.005947503 0.005430252 -0.004550323)
(-0.009400026 0.002852512 -0.007017825)
(-0.0116512 0.002060376 -0.008317725)
(-0.01273599 0.00295415 -0.008878771)
(-0.01290736 0.004981338 -0.008980621)
(-0.01210155 0.007654471 -0.008844383)
(-0.01015963 0.01067739 -0.008661194)
(-0.007255998 0.01386662 -0.00851552)
(-0.00348758 0.01672435 -0.008464581)
(0.001082576 0.01897533 -0.008454477)
(0.005949625 0.02073916 -0.008328579)
(0.01103107 0.02163704 -0.007889329)
(0.01605089 0.02140801 -0.007210806)
(0.02086337 0.02015805 -0.006294934)
(0.02519142 0.01791888 -0.0050357)
(0.02846789 0.01460522 -0.003248773)
(0.02945532 0.01003234 -0.0006214279)
(0.02699341 0.004109553 0.003336571)
(0.02060205 -0.003234703 0.007779895)
(0.01101607 -0.01043302 0.008514794)
(0.002632801 -0.01538162 0.004925786)
(-0.002831031 -0.01759407 0.002722125)
(-0.006866149 -0.01793811 0.001748109)
(-0.009319121 -0.01825626 0.0007997741)
(-0.0109163 -0.01858353 -0.000366361)
(-0.01162759 -0.0190029 -0.001663859)
(-0.01142632 -0.019286 -0.003050261)
(-0.01037767 -0.01926284 -0.004215182)
(-0.007754953 -0.01800318 -0.005300226)
(-0.002957858 -0.01574585 -0.006118964)
(0.00383805 -0.01277041 -0.005589704)
(0.01061708 -0.01091311 -0.002619864)
(0.009558509 -0.008724433 0.007145509)
(-0.004963838 0.02502788 0.002662425)
(-0.004732846 0.03074698 -0.003899719)
(-0.002536871 0.03127406 -0.003652105)
(-0.002119147 0.02948872 -0.002164414)
(-0.002913122 0.02584181 -0.001150795)
(-0.005193161 0.02150233 -0.001366726)
(-0.007809713 0.01751202 -0.002846173)
(-0.009971341 0.0146634 -0.00490537)
(-0.0111382 0.01325793 -0.006589035)
(-0.01145962 0.01316309 -0.007479533)
(-0.01109334 0.01406062 -0.007817847)
(-0.01009322 0.01570655 -0.007790785)
(-0.008523184 0.01794788 -0.00759749)
(-0.006353199 0.02045568 -0.007349506)
(-0.003592868 0.02295682 -0.007136344)
(-5.705062e-05 0.02516768 -0.00699385)
(0.003933216 0.02680248 -0.006814238)
(0.008125889 0.02776933 -0.006481918)
(0.01240002 0.02775792 -0.005968576)
(0.01655818 0.02656787 -0.005302927)
(0.02041494 0.02419669 -0.004382923)
(0.0235862 0.02072314 -0.002991392)
(0.02542206 0.0162231 -0.0008829793)
(0.02467234 0.01019368 0.002213368)
(0.02097128 0.002844247 0.006266429)
(0.0141138 -0.005405858 0.008349313)
(0.006484579 -0.01183834 0.005838416)
(0.001130876 -0.01555337 0.002886561)
(-0.003125557 -0.01750495 0.001818216)
(-0.006558062 -0.01798128 0.001476261)
(-0.009070783 -0.0179152 0.001085969)
(-0.01083467 -0.01743411 0.0004296212)
(-0.01170712 -0.01677593 -0.0005437325)
(-0.0114532 -0.01613254 -0.001908381)
(-0.009858258 -0.01567519 -0.003431593)
(-0.006374348 -0.01502882 -0.005025752)
(-0.0006663442 -0.0142383 -0.006360093)
(0.006273319 -0.01302929 -0.005762337)
(0.01155594 -0.01235154 -0.002695218)
(0.00979573 -0.01141098 0.004803175)
(-0.004036007 0.02641021 0.002877714)
(-0.005518718 0.03417227 -0.001160559)
(-0.005716671 0.03454432 -0.0008072903)
(-0.006896727 0.03288676 -7.829947e-05)
(-0.008389879 0.02981347 -0.0001492682)
(-0.01026858 0.02665317 -0.001212741)
(-0.01167355 0.02416961 -0.002896117)
(-0.01234348 0.02271281 -0.004550609)
(-0.01218545 0.02221205 -0.005709585)
(-0.0113697 0.02243897 -0.006293044)
(-0.01005241 0.02323584 -0.006463718)
(-0.008332851 0.02444778 -0.006350039)
(-0.006274545 0.0259902 -0.006097399)
(-0.003894369 0.02768565 -0.005824417)
(-0.001090486 0.02936017 -0.005591022)
(0.002130012 0.03076771 -0.005370077)
(0.005578369 0.03164464 -0.005080707)
(0.009086701 0.03178676 -0.004675708)
(0.01252652 0.03093186 -0.004126703)
(0.01572055 0.02892202 -0.003392812)
(0.0184756 0.02569854 -0.002345806)
(0.02031138 0.02124081 -0.0007431654)
(0.02047107 0.01544178 0.001626857)
(0.01852293 0.008542081 0.004887217)
(0.01378947 -7.939552e-05 0.00729482)
(0.007856739 -0.007871499 0.005793531)
(0.003010809 -0.0123477 0.002572408)
(-0.0002894828 -0.01520127 0.0009651463)
(-0.003224822 -0.01690158 0.0006283328)
(-0.005816134 -0.01755507 0.000681939)
(-0.00800062 -0.01749756 0.0007674062)
(-0.00968117 -0.01682398 0.0007293884)
(-0.01065647 -0.01573869 0.0003649094)
(-0.01057497 -0.0145167 -0.0006089394)
(-0.008947943 -0.01352057 -0.002159898)
(-0.005169206 -0.01282153 -0.004035586)
(0.001372464 -0.01222568 -0.005795132)
(0.008945546 -0.01113812 -0.005496518)
(0.0157493 -0.01048408 -0.001396379)
(0.01357385 -0.007982507 0.01016595)
(-0.003523971 0.02669658 0.003481788)
(-0.006475452 0.03562187 0.001067217)
(-0.008639905 0.03583048 0.001174615)
(-0.01080656 0.03447273 0.001198686)
(-0.01254042 0.03219306 0.0003917914)
(-0.013789 0.03019194 -0.001016221)
(-0.01421781 0.02889174 -0.002548457)
(-0.01386431 0.02834326 -0.003813456)
(-0.01282627 0.02834991 -0.004626046)
(-0.01128555 0.0286991 -0.004997561)
(-0.009394943 0.02927887 -0.005044246)
(-0.007255721 0.03002723 -0.004871969)
(-0.004936607 0.03094552 -0.004599001)
(-0.002473193 0.03192569 -0.004340972)
(0.0002567918 0.03284866 -0.004102808)
(0.003125367 0.03349857 -0.003808879)
(0.006057468 0.03364295 -0.003411839)
(0.008896487 0.03306082 -0.002884786)
(0.01149419 0.03148904 -0.002193992)
(0.0136358 0.02870074 -0.001265708)
(0.01509154 0.02457254 -4.753098e-07)
(0.01544366 0.01921429 0.001739809)
(0.01428301 0.01276194 0.003975445)
(0.01126718 0.005153847 0.005735217)
(0.006759285 -0.003335512 0.00481544)
(0.002860237 -0.00877571 0.00165231)
(0.0004158295 -0.01183856 -0.000221272)
(-0.001460256 -0.01409847 -0.0007095268)
(-0.003365577 -0.01554073 -0.0006538828)
(-0.00520657 -0.01621867 -0.0004454294)
(-0.006916073 -0.01629401 -0.0001397837)
(-0.008388403 -0.01577672 0.0001926474)
(-0.009427394 -0.01471576 0.0003040566)
(-0.009627548 -0.01328718 -0.0002537488)
(-0.008285405 -0.01193331 -0.001657996)
(-0.004590217 -0.01114545 -0.003644014)
(0.002299765 -0.01078123 -0.00578807)
(0.01054983 -0.01089749 -0.005795456)
(0.0188061 -0.01236007 -0.001151323)
(0.01596018 -0.01334275 0.01216798)
(-0.003372395 0.0258793 0.004254103)
(-0.007485406 0.03541607 0.002823608)
(-0.01101822 0.03553815 0.002595724)
(-0.01367896 0.03453235 0.00205399)
(-0.01539307 0.03310086 0.000822565)
(-0.01612533 0.03210563 -0.0006545353)
(-0.0158447 0.03166805 -0.001986109)
(-0.01482145 0.03168142 -0.002951171)
(-0.01324399 0.03191343 -0.003515904)
(-0.01129883 0.0321879 -0.003732982)
(-0.009123813 0.03244568 -0.003694703)
(-0.006808963 0.03270155 -0.003486183)
(-0.004418098 0.03302897 -0.003198555)
(-0.001977184 0.03338324 -0.002924088)
(0.0005769583 0.03365061 -0.002625224)
(0.003116811 0.03361101 -0.002211828)
(0.005552605 0.03299278 -0.001647953)
(0.007703054 0.03159261 -0.0009248102)
(0.009402256 0.02927598 -6.604181e-05)
(0.01044434 0.02588214 0.000954545)
(0.01057645 0.02133075 0.002193161)
(0.00947852 0.01564758 0.003555603)
(0.00728339 0.009295317 0.003969077)
(0.003913022 0.002424036 0.002577897)
(0.001135545 -0.003936386 0.0003312679)
(-0.0005959883 -0.007622118 -0.001642557)
(-0.001487791 -0.01014225 -0.002108752)
(-0.002479533 -0.01206118 -0.001968548)
(-0.003623964 -0.01331454 -0.001741297)
(-0.004809037 -0.01396944 -0.001495718)
(-0.005973946 -0.01412135 -0.001146915)
(-0.007080365 -0.01374996 -0.000637929)
(-0.008032054 -0.01280542 -0.0001009231)
(-0.008498502 -0.01132009 -3.343468e-05)
(-0.007659319 -0.009670882 -0.001011383)
(-0.004461778 -0.008523563 -0.003163658)
(0.001783034 -0.008222735 -0.00571413)
(0.009982659 -0.009167164 -0.006518502)
(0.01638566 -0.01132109 -0.003399002)
(0.01442389 -0.01351994 0.006850471)
(-0.003399907 0.02382495 0.005157799)
(-0.008349378 0.03355405 0.004421193)
(-0.01276533 0.03370264 0.003818272)
(-0.01563341 0.03313225 0.002838208)
(-0.01721276 0.03253378 0.001386116)
(-0.01752674 0.03234266 -2.891447e-05)
(-0.01681685 0.03249309 -0.001137176)
(-0.01541503 0.03279282 -0.001856061)
(-0.01358048 0.03302723 -0.002223735)
(-0.01148407 0.03308758 -0.00231478)
(-0.009240045 0.03296748 -0.00220852)
(-0.006922292 0.03273126 -0.001969186)
(-0.004581915 0.03248664 -0.001658048)
(-0.002249736 0.03220283 -0.001337609)
(8.254354e-05 0.03176462 -0.0009561305)
(0.00231392 0.03096691 -0.0004163894)
(0.004247979 0.02965546 0.0002615773)
(0.005761369 0.02774796 0.001015461)
(0.006629514 0.02512407 0.001805582)
(0.006591861 0.02167038 0.002651745)
(0.00534034 0.0173854 0.003496248)
(0.002859268 0.01245413 0.003068076)
(0.0002237285 0.007828516 -0.0002334599)
(-0.00169334 0.002313703 -0.001256251)
(-0.002777047 -0.002725367 -0.002334568)
(-0.00319111 -0.005677008 -0.002991177)
(-0.003370436 -0.007868565 -0.003060049)
(-0.003699791 -0.009530517 -0.002897177)
(-0.004184564 -0.01062093 -0.002711569)
(-0.004736998 -0.01115185 -0.00249499)
(-0.005316537 -0.01120953 -0.00211276)
(-0.005980674 -0.01084546 -0.001342419)
(-0.006764132 -0.01005605 -0.0001428816)
(-0.007433921 -0.00877181 0.0007808805)
(-0.006964053 -0.007079029 -0.0001127817)
(-0.004122283 -0.005608571 -0.002575468)
(0.0018561 -0.00491686 -0.005243221)
(0.01041232 -0.005022842 -0.007022535)
(0.01798712 -0.006788446 -0.003902862)
(0.01710196 -0.00882084 0.01089108)
(-0.003575752 0.019977 0.006464781)
(-0.009005707 0.02971465 0.006216989)
(-0.01388136 0.03011933 0.005078469)
(-0.01677434 0.03013065 0.003734966)
(-0.01817601 0.03032477 0.002201715)
(-0.0181669 0.03072139 0.0009353974)
(-0.01721389 0.0311583 8.700163e-05)
(-0.01566953 0.0314665 -0.0003813638)
(-0.01380223 0.03151241 -0.0005585451)
(-0.01176045 0.03124861 -0.0005311655)
(-0.009630236 0.03071202 -0.0003685327)
(-0.007463913 0.02999141 -0.0001126614)
(-0.0053059 0.02921458 0.0002026973)
(-0.003181497 0.02840141 0.0005203677)
(-0.001097068 0.02743449 0.0008603837)
(0.0008472989 0.0261988 0.001288785)
(0.002431522 0.02453657 0.001820721)
(0.003440506 0.02246231 0.002391651)
(0.003653263 0.02006056 0.002931077)
(0.002722419 0.01729312 0.00347826)
(0.0002624729 0.01386629 0.003555182)
(-0.002880666 0.0100045 0.001541083)
(-0.005041288 0.006392191 -0.00116216)
(-0.005883336 0.001961378 -0.002371922)
(-0.005850517 -0.001499095 -0.003273062)
(-0.005608442 -0.003732907 -0.003675013)
(-0.005312519 -0.005473117 -0.003787166)
(-0.005140282 -0.006797174 -0.003746127)
(-0.005084737 -0.007612052 -0.003636485)
(-0.005090041 -0.007909828 -0.003373544)
(-0.005156133 -0.007800659 -0.002729974)
(-0.005425156 -0.007468212 -0.001380406)
(-0.006005905 -0.007005035 0.0006037819)
(-0.006674072 -0.006170916 0.001758465)
(-0.006295908 -0.004697537 0.0003455869)
(-0.003721126 -0.003025829 -0.002020661)
(0.00205715 -0.002016395 -0.004543453)
(0.01065295 -0.001923614 -0.006909466)
(0.019118 -0.005121246 -0.003371919)
(0.01794102 -0.01132165 0.01209014)
(-0.003766904 0.01341545 0.009100789)
(-0.009252656 0.02246081 0.008831994)
(-0.01434072 0.02408297 0.006718573)
(-0.01712518 0.02518871 0.004956978)
(-0.01834056 0.02623513 0.003384476)
(-0.01816565 0.02704705 0.002275112)
(-0.01714983 0.0275578 0.001656788)
(-0.01566155 0.02769812 0.001398863)
(-0.01395325 0.027453 0.001367213)
(-0.01213444 0.02685471 0.001459674)
(-0.0102553 0.02598123 0.001612492)
(-0.008341355 0.02492782 0.001804661)
(-0.006434557 0.02380701 0.00203376)
(-0.004566483 0.022656 0.002263951)
(-0.002768528 0.02138322 0.002469268)
(-0.001119868 0.01991836 0.002665194)
(0.0002496378 0.01825827 0.002851072)
(0.001130681 0.01649849 0.003086659)
(0.001028213 0.01469409 0.003687979)
(-0.0008177643 0.01243391 0.004651662)
(-0.004055353 0.00952439 0.004209692)
(-0.006855941 0.006792175 0.001862433)
(-0.008470601 0.004481103 -0.0006132058)
(-0.008962192 0.001951968 -0.002567237)
(-0.008561933 -0.0001395195 -0.003633395)
(-0.007973544 -0.001685037 -0.004131195)
(-0.007368386 -0.002945747 -0.004340752)
(-0.006842286 -0.003882873 -0.004379394)
(-0.006390461 -0.004400554 -0.004237291)
(-0.005992766 -0.00453283 -0.003779433)
(-0.005695416 -0.004436176 -0.002756544)
(-0.005632975 -0.004292998 -0.001022145)
(-0.005882612 -0.004121429 0.0008995381)
(-0.006210882 -0.003617058 0.001501557)
(-0.005775505 -0.002353552 0.0003412579)
(-0.003527034 -0.0005449027 -0.001442454)
(0.00178562 0.0006835376 -0.003701404)
(0.01011458 0.000906709 -0.006307259)
(0.01854107 -0.002914942 -0.003322408)
(0.01633048 -0.01132798 0.009651314)
(-0.005562464 0.00123339 0.01348075)
(-0.009456094 0.01170282 0.01396961)
(-0.01308504 0.01521015 0.009825573)
(-0.01601447 0.01760281 0.007057511)
(-0.01742358 0.01967254 0.005180395)
(-0.01742447 0.02098587 0.004047808)
(-0.01659394 0.02162013 0.003482144)
(-0.01536087 0.0216532 0.003264436)
(-0.01396673 0.02120836 0.003223376)
(-0.01249516 0.02040407 0.003245772)
(-0.01096557 0.01935885 0.003275295)
(-0.009378541 0.01817414 0.00331185)
(-0.007765375 0.01694216 0.003385287)
(-0.006162854 0.01568832 0.003493643)
(-0.004632542 0.01434585 0.003572501)
(-0.003253064 0.01282973 0.003587644)
(-0.002094355 0.01115849 0.003528053)
(-0.001374429 0.009523745 0.003750245)
(-0.001907788 0.007934389 0.00474189)
(-0.004214264 0.006139679 0.005217462)
(-0.007007874 0.004524988 0.00373331)
(-0.009062595 0.003524995 0.00156149)
(-0.01034923 0.002724456 -0.0003534733)
(-0.01092778 0.00184474 -0.002063456)
(-0.01070944 0.0009796388 -0.003232486)
(-0.0101052 0.0001732593 -0.003859527)
(-0.0093772 -0.0005860142 -0.004196386)
(-0.00862004 -0.001165996 -0.00429132)
(-0.007875365 -0.001492968 -0.004103707)
(-0.007156966 -0.001612832 -0.003556068)
(-0.00651987 -0.00161803 -0.002539686)
(-0.006037444 -0.001580466 -0.001164523)
(-0.00581477 -0.001519639 0.0001471819)
(-0.005706697 -0.001180343 0.0008481931)
(-0.005084118 -7.038371e-05 0.0004710278)
(-0.002976835 0.001668098 -0.0007537311)
(0.001953072 0.003093219 -0.002775616)
(0.009722435 0.003614771 -0.005565775)
(0.01885085 -0.0001714235 -0.002836267)
(0.01582572 -0.008758061 0.01049838)
(-0.005838162 -0.01392871 0.01066617)
(-0.008853373 -0.0118841 0.01329572)
(-0.01109078 -0.0001229171 0.01276633)
(-0.01369067 0.007403096 0.01081752)
(-0.01489388 0.01105041 0.008303784)
(-0.01537684 0.0128778 0.006557799)
(-0.0151147 0.0137585 0.005583677)
(-0.01444684 0.01390156 0.005050609)
(-0.01358171 0.01352521 0.004713123)
(-0.01259389 0.01280483 0.004437248)
(-0.01148917 0.01187545 0.004169653)
(-0.0102556 0.01081776 0.003918071)
(-0.008929906 0.009663548 0.003720662)
(-0.007608173 0.008416084 0.003554056)
(-0.006382056 0.007090973 0.003318825)
(-0.005315864 0.005671405 0.002926186)
(-0.004415891 0.004252445 0.00243309)
(-0.003903524 0.002927782 0.00230111)
(-0.00446068 0.001697185 0.002639078)
(-0.006161028 0.0008117565 0.002376229)
(-0.008034139 0.0006372925 0.001432214)
(-0.009623783 0.0009186663 0.000637374)
(-0.01088613 0.001236489 -0.0001383604)
(-0.01170959 0.001436629 -0.001098498)
(-0.01199998 0.001483385 -0.002123745)
(-0.01161637 0.00131511 -0.002847818)
(-0.01091492 0.001031646 -0.003290959)
(-0.01005011 0.0007401908 -0.003476085)
(-0.009110239 0.0005344263 -0.00339979)
(-0.008136931 0.0004254889 -0.003046688)
(-0.007191961 0.0004322141 -0.002386898)
(-0.006316525 0.0005599104 -0.00151217)
(-0.00561496 0.0007748007 -0.0006012393)
(-0.005059201 0.001174286 0.0002333515)
(-0.00422093 0.002085597 0.0004827275)
(-0.002260165 0.003596246 -0.0002433253)
(0.002195128 0.005030899 -0.002029538)
(0.009247085 0.005520465 -0.004909558)
(0.01838087 0.001661157 -0.002881282)
(0.01539183 -0.007723414 0.01022221)
(-0.004660191 -0.02035574 0.005636523)
(-0.006909891 -0.02486997 0.005326489)
(-0.008123907 -0.01737489 0.00798719)
(-0.01002158 -0.00894858 0.0102738)
(-0.01154566 -0.001784377 0.009982463)
(-0.01264706 0.002465561 0.008476807)
(-0.01296387 0.004604387 0.007151403)
(-0.01283804 0.00545945 0.006147859)
(-0.01246643 0.00554595 0.005328101)
(-0.01192894 0.005227266 0.004595294)
(-0.01122332 0.004681969 0.003890562)
(-0.01034365 0.004001939 0.003201815)
(-0.009323409 0.003258236 0.002546028)
(-0.008269214 0.002491198 0.001887995)
(-0.007267507 0.001725165 0.001184236)
(-0.006358329 0.0009437871 0.0004484011)
(-0.005583049 0.0001704483 -0.0001982171)
(-0.00514654 -0.0005829521 -0.0004752442)
(-0.005472158 -0.001203583 -0.0003546253)
(-0.006633821 -0.001373964 -0.0001919499)
(-0.00811161 -0.001078634 -7.632801e-05)
(-0.009553891 -0.0005359689 7.655269e-05)
(-0.01081043 0.0001067314 6.916758e-05)
(-0.01174897 0.0007588499 -0.0002284327)
(-0.01224955 0.00130219 -0.0008156398)
(-0.01229644 0.001605233 -0.00157559)
(-0.0117479 0.001678989 -0.002176522)
(-0.01087036 0.001652006 -0.00250245)
(-0.009824113 0.00161448 -0.002618058)
(-0.008684249 0.00163382 -0.002525387)
(-0.007500572 0.001777432 -0.002179674)
(-0.006287898 0.002110506 -0.001615292)
(-0.005175881 0.002594136 -0.0009052988)
(-0.004253585 0.003199198 -0.0001132631)
(-0.003194125 0.004054783 0.0004135157)
(-0.001378259 0.005319094 0.0001170085)
(0.00255922 0.006623448 -0.001289827)
(0.008911057 0.00695569 -0.004142808)
(0.01770444 0.003159264 -0.003043275)
(0.01482184 -0.006766335 0.009745722)
(-0.004148144 -0.02374941 0.003758894)
(-0.005208062 -0.03105928 0.0008425139)
(-0.004990003 -0.02584785 0.002789938)
(-0.007123521 -0.01887458 0.005620857)
(-0.009161136 -0.01241409 0.006783778)
(-0.01063576 -0.007681838 0.006601417)
(-0.01130099 -0.004635869 0.005901157)
(-0.01148118 -0.002861904 0.005071678)
(-0.01136889 -0.001887952 0.00424183)
(-0.01105457 -0.001381831 0.003422139)
(-0.01055927 -0.001129008 0.002601004)
(-0.009900779 -0.001011562 0.00177633)
(-0.009110122 -0.0009608743 0.000970777)
(-0.008252551 -0.0009275493 0.0002046884)
(-0.007408209 -0.0009224515 -0.000496201)
(-0.006645683 -0.001012893 -0.001106472)
(-0.006013272 -0.001220305 -0.001535708)
(-0.005669669 -0.001521989 -0.001627952)
(-0.005885315 -0.001798083 -0.001332998)
(-0.006809504 -0.001849023 -0.0007917958)
(-0.008187589 -0.0016592 -0.0002436055)
(-0.009598475 -0.001306583 6.582665e-05)
(-0.01074386 -0.0008248369 0.0001775295)
(-0.01155475 -0.0001736422 0.000191393)
(-0.01205032 0.0005757877 5.154426e-05)
(-0.01224436 0.001207893 -0.000409078)
(-0.01202023 0.001587038 -0.001089639)
(-0.01126461 0.001809461 -0.001648618)
(-0.01016355 0.002022702 -0.001936297)
(-0.008900455 0.002264225 -0.002028886)
(-0.007527571 0.002611763 -0.0018908)
(-0.006038026 0.003192307 -0.001522574)
(-0.004571615 0.003972622 -0.001010693)
(-0.003320289 0.00479997 -0.0003245699)
(-0.002072829 0.005719655 0.0002888345)
(-0.0003639428 0.00686242 0.0003097706)
(0.003029395 0.00798352 -0.0007272123)
(0.008580619 0.008153167 -0.003470983)
(0.01659369 0.00442937 -0.00342376)
(0.0140126 -0.006476633 0.009994032)
(-0.004325118 -0.02528452 0.003251899)
(-0.004732709 -0.03325219 -0.001307218)
(-0.002947844 -0.03017171 -0.0001610861)
(-0.004469889 -0.02496466 0.002705458)
(-0.006551057 -0.01935999 0.004276807)
(-0.008582578 -0.01469903 0.004552072)
(-0.009845192 -0.01128197 0.004162927)
(-0.010483 -0.008943152 0.003553885)
(-0.01064454 -0.007327401 0.002896098)
(-0.0104784 -0.006140689 0.002228816)
(-0.01006487 -0.005175896 0.001549343)
(-0.009460481 -0.004313529 0.0008627843)
(-0.008725737 -0.003496244 0.0001983944)
(-0.00796458 -0.002717896 -0.0004016216)
(-0.007264266 -0.002039572 -0.0009212534)
(-0.006683186 -0.00158702 -0.00137601)
(-0.006234246 -0.001413815 -0.001671217)
(-0.006025522 -0.001485753 -0.00168334)
(-0.006233805 -0.001679198 -0.001286899)
(-0.007085429 -0.001843449 -0.0005533926)
(-0.008456972 -0.001923952 0.0001082137)
(-0.009881967 -0.001861262 0.000345664)
(-0.01092813 -0.001637974 0.0002945523)
(-0.0115138 -0.001201899 0.0002991046)
(-0.01182924 -0.000529975 0.0004234728)
(-0.01200523 0.0002548489 0.00032784)
(-0.01189811 0.0009650085 -0.0001801307)
(-0.01137679 0.001512111 -0.0008537392)
(-0.01032915 0.002001251 -0.001353536)
(-0.008954879 0.002534683 -0.001610255)
(-0.007417607 0.003132786 -0.001653032)
(-0.005680767 0.003953703 -0.001454642)
(-0.003878436 0.004970286 -0.001083193)
(-0.002272365 0.006021827 -0.0005690585)
(-0.0007603377 0.007121455 -6.032808e-05)
(0.0008622137 0.008288235 0.0001954203)
(0.003601287 0.009276093 -0.0004503142)
(0.008027591 0.009302334 -0.002867416)
(0.01466421 0.005593414 -0.003375425)
(0.01256617 -0.006335563 0.009828856)
(-0.004763211 -0.02597801 0.003158822)
(-0.004773143 -0.03349138 -0.002381705)
(-0.001816608 -0.03163041 -0.001909078)
(-0.002509433 -0.02795636 0.0007563985)
(-0.00429205 -0.02356941 0.002597722)
(-0.006483215 -0.01951995 0.003225249)
(-0.008034247 -0.01620405 0.00306892)
(-0.008921718 -0.0136354 0.002624393)
(-0.009241134 -0.01159928 0.002117521)
(-0.009166574 -0.009878967 0.00161641)
(-0.008813599 -0.008312586 0.001128303)
(-0.008275849 -0.00681051 0.000661556)
(-0.007648939 -0.005345504 0.0002433948)
(-0.007077546 -0.003948208 -0.0001230907)
(-0.006670925 -0.00269657 -0.0005098606)
(-0.006413777 -0.001754088 -0.0009530188)
(-0.0062676 -0.001209428 -0.001251632)
(-0.006327825 -0.001078596 -0.001232593)
(-0.006698766 -0.001284656 -0.0007969143)
(-0.007596243 -0.00168236 -6.757064e-05)
(-0.008948256 -0.002128863 0.0005448045)
(-0.01036255 -0.002384764 0.000709365)
(-0.01135437 -0.002402293 0.0005161622)
(-0.01175921 -0.002203795 0.0003388859)
(-0.0117871 -0.001758651 0.0004220427)
(-0.01171573 -0.001014577 0.0005696197)
(-0.01158145 -5.692998e-05 0.0003997238)
(-0.01116814 0.0008863082 -0.0001725929)
(-0.01030413 0.001712702 -0.0008242042)
(-0.008884705 0.002558907 -0.001265673)
(-0.0071852 0.003437349 -0.001507163)
(-0.005217973 0.004489655 -0.001486702)
(-0.0031026 0.005705811 -0.001239484)
(-0.001113277 0.006908106 -0.0008822806)
(0.0006199624 0.008171959 -0.0005143769)
(0.002099755 0.009496054 -0.0002216053)
(0.004133936 0.01053313 -0.0006034751)
(0.007300865 0.01059453 -0.002538579)
(0.01220193 0.007132708 -0.003288227)
(0.01076033 -0.005022511 0.007876903)
(-0.005375211 -0.02628132 0.0033332)
(-0.005263425 -0.03302885 -0.002919075)
(-0.001432977 -0.03168078 -0.003025937)
(-0.001114377 -0.02918574 -0.000755149)
(-0.002310245 -0.02585253 0.001218951)
(-0.004385058 -0.02248581 0.002137237)
(-0.006021985 -0.01945416 0.00219689)
(-0.007028383 -0.01688882 0.001904767)
(-0.007412546 -0.01468136 0.001539429)
(-0.00735328 -0.01268386 0.001214701)
(-0.006995749 -0.01077797 0.0009586084)
(-0.006475811 -0.008892336 0.0007808823)
(-0.00593229 -0.007002766 0.0007028552)
(-0.005558445 -0.005137726 0.0006933614)
(-0.00554092 -0.003367321 0.0005654682)
(-0.005780092 -0.001923706 0.0001123612)
(-0.006111083 -0.0009808864 -0.0003584893)
(-0.006581438 -0.0006364495 -0.0004281526)
(-0.007268195 -0.0008947545 -7.357675e-05)
(-0.008285742 -0.001577484 0.0005057756)
(-0.009582809 -0.002396485 0.0009531284)
(-0.01091006 -0.002957352 0.001031991)
(-0.01184698 -0.003198095 0.0007706785)
(-0.01216649 -0.003163516 0.0004155326)
(-0.01195394 -0.002904198 0.0002574212)
(-0.0115179 -0.002304201 0.0003946514)
(-0.01113485 -0.001269882 0.0005628417)
(-0.01074531 5.614757e-05 0.000324506)
(-0.01003211 0.001299067 -0.0003009931)
(-0.008702234 0.002450448 -0.0009268732)
(-0.006857885 0.003604567 -0.001400298)
(-0.004669406 0.004863783 -0.001613023)
(-0.002171848 0.006194006 -0.001550593)
(0.0001999942 0.007522577 -0.001339757)
(0.002141146 0.009021746 -0.001037957)
(0.00349361 0.01057042 -0.0007596437)
(0.004889721 0.01186626 -0.0009849342)
(0.006776437 0.01228216 -0.002367046)
(0.01012685 0.009613529 -0.003093999)
(0.008713735 -0.001017238 0.004110793)
(-0.006075891 -0.02646769 0.003593263)
(-0.005926167 -0.03229282 -0.003314285)
(-0.001454 -0.03102296 -0.003768375)
(-0.0002541335 -0.02926494 -0.001952675)
(-0.0006559144 -0.02683042 1.991067e-06)
(-0.00240525 -0.0241658 0.001176147)
(-0.003946139 -0.02152863 0.001465227)
(-0.004958317 -0.01911717 0.001337347)
(-0.005334654 -0.01691317 0.001099664)
(-0.005230404 -0.01484218 0.0009184478)
(-0.004806105 -0.01284133 0.0008533179)
(-0.004232763 -0.01085207 0.0009155305)
(-0.003678315 -0.008832995 0.001139405)
(-0.003383382 -0.006754387 0.001564926)
(-0.003704172 -0.004617075 0.001990898)
(-0.004567956 -0.002586276 0.00184755)
(-0.005604204 -0.001106734 0.00125781)
(-0.006726827 -0.0004566505 0.0008593704)
(-0.00788597 -0.0007347715 0.0008717954)
(-0.009070435 -0.001680935 0.001100621)
(-0.01028696 -0.002760053 0.001262412)
(-0.01140535 -0.003542944 0.00119844)
(-0.01218923 -0.003937334 0.0008789755)
(-0.01243592 -0.003984949 0.0004254237)
(-0.0121 -0.003796475 6.402685e-05)
(-0.01139242 -0.003321176 4.192066e-05)
(-0.01065811 -0.002399081 0.0003754318)
(-0.0101562 -0.0009053782 0.0006552864)
(-0.009595442 0.000748767 0.0002614041)