/*--------------------------------*- C++ -*----------------------------------*\
| =========                 |                                                 |
| \\      /  F ield         | OpenFOAM: The Open Source CFD Toolbox           |
|  \\    /   O peration     | Version:  2212                                  |
|   \\  /    A nd           | Website:  www.openfoam.com                      |
|    \\/     M anipulation  |                                                 |
\*---------------------------------------------------------------------------*/
FoamFile
{
    version     2.0;
    format      ascii;
    arch        "LSB;label=32;scalar=64";
    class       volScalarField;
    location    "3000";
    object      alphat;
}
// * * * * * * * * * * * * * * * * * * * * * * * * * * * * * * * * * * * * * //

dimensions      [1 -1 -1 0 0 0 0];

internalField   nonuniform List<scalar> 
96000
(
0.002672786
0.002427435
0.002404857
0.002440228
0.002493997
0.002552511
0.002602802
0.002651177
0.002707112
0.002765672
0.002813995
0.002847968
0.00287238
0.002887137
0.002861876
0.00277198
0.002642291
0.002538827
0.002519911
0.002582993
0.002687829
0.002793044
0.002880561
0.002945416
0.002977438
0.002969643
0.002928323
0.002868897
0.002808679
0.002743377
0.002659723
0.00256745
0.002476441
0.002388659
0.002307676
0.002241546
0.002193062
0.002154472
0.002187166
0.002166567
0.002405493
0.002305812
0.002355723
0.002419316
0.002494405
0.002567234
0.002629849
0.002691548
0.002756797
0.002824973
0.002887038
0.002939938
0.002986291
0.003020894
0.003021
0.002952536
0.00281743
0.00269073
0.002659756
0.002736168
0.002862101
0.002979771
0.003053125
0.003077473
0.003043364
0.002959266
0.002852516
0.002751513
0.002674393
0.002604412
0.002526853
0.002449385
0.002378057
0.002314035
0.002259895
0.002220564
0.002201211
0.002198871
0.002245025
0.00218849
0.0022887
0.00220485
0.002266276
0.00235278
0.002462445
0.002559398
0.002641418
0.002718588
0.00279014
0.00285393
0.002907729
0.002953157
0.002993027
0.003024233
0.003030953
0.002983551
0.002864086
0.002721473
0.002640445
0.002677748
0.002781632
0.00289561
0.002970987
0.002985434
0.002941236
0.002860576
0.002761988
0.002659322
0.002565724
0.002485486
0.002409475
0.00233712
0.002271933
0.002215412
0.002169442
0.00213569
0.00211698
0.00212017
0.002180029
0.002128314
0.002171233
0.00212471
0.002186984
0.002303377
0.002436331
0.002543929
0.002639662
0.002727291
0.002804757
0.00286965
0.002922077
0.002965816
0.003001829
0.003029794
0.003041708
0.003015431
0.002921527
0.002772913
0.002636313
0.002601683
0.002668894
0.002774089
0.002859754
0.002898097
0.002885472
0.002835083
0.002761961
0.002676569
0.002588436
0.00250347
0.002422173
0.002344885
0.002274717
0.002213524
0.002162412
0.002121675
0.002097349
0.002100287
0.002160982
0.002134444
0.002165318
0.002090755
0.002133516
0.00229084
0.002416196
0.002523571
0.002623397
0.00271707
0.002799631
0.002871048
0.00292984
0.002978698
0.003014382
0.003037179
0.003047813
0.003031308
0.002963062
0.002824817
0.002655544
0.002547368
0.002559547
0.002643367
0.002735335
0.002793389
0.002806776
0.00278573
0.002743812
0.002685856
0.00261567
0.002539307
0.002461927
0.002386671
0.002317371
0.00225568
0.002201298
0.002152438
0.002116795
0.002115159
0.002179235
0.002178059
0.00219083
0.002126677
0.002200253
0.002297708
0.002388321
0.002474673
0.002569579
0.002669392
0.002762569
0.002846958
0.002917304
0.00297204
0.003005303
0.003018731
0.003023411
0.003010979
0.002969012
0.002856742
0.002685483
0.00252998
0.002478706
0.00252502
0.002613241
0.002689324
0.002729592
0.002737202
0.002722517
0.002687321
0.002633785
0.002568112
0.002497365
0.002426969
0.002361096
0.002300465
0.002243088
0.002185719
0.002135994
0.00212557
0.002193253
0.002217852
0.002246906
0.002207858
0.002248362
0.002295753
0.002347202
0.002403778
0.002484297
0.002585057
0.002688298
0.00278596
0.00286994
0.002930276
0.002958471
0.0029627
0.002960814
0.002954008
0.00294203
0.002866711
0.002715816
0.002543237
0.00243735
0.002434843
0.00250508
0.002592867
0.002659152
0.002698375
0.002708252
0.002691424
0.002653201
0.002598862
0.002535411
0.00246948
0.002405889
0.002344419
0.002281372
0.002213143
0.002147895
0.002126277
0.002195809
0.002245802
0.002285087
0.002240536
0.002252155
0.002268751
0.002291844
0.002320439
0.002379845
0.002475394
0.002583761
0.002690536
0.002783564
0.002849157
0.002875316
0.002874775
0.002870205
0.002871975
0.002894879
0.002863512
0.002744592
0.002575295
0.002433572
0.002374387
0.002405998
0.002490352
0.002577649
0.002655102
0.002696258
0.002698175
0.002676019
0.002634724
0.002579653
0.002517375
0.002452521
0.00238703
0.002316664
0.002234744
0.002152235
0.002117716
0.002187174
0.002260207
0.002265292
0.002227602
0.002221514
0.002222451
0.002227784
0.002235459
0.002274969
0.002361778
0.002470778
0.002581693
0.002679773
0.002751568
0.002781957
0.002783047
0.002774842
0.002784285
0.002837986
0.002851344
0.002770329
0.002618399
0.002458138
0.00234398
0.002314446
0.002367704
0.00246786
0.002578123
0.002665707
0.002701432
0.002698347
0.002671348
0.002625822
0.00256649
0.002497291
0.002424819
0.002347093
0.002254375
0.002155691
0.00210577
0.002172193
0.002266608
0.002194204
0.00217918
0.002175892
0.002175869
0.002176117
0.002175648
0.002203257
0.002281935
0.002389048
0.002500237
0.002599711
0.002674721
0.002711301
0.002711939
0.002696398
0.002706338
0.002776277
0.002827438
0.00278768
0.002665062
0.002505228
0.002354278
0.002254333
0.002242024
0.002318403
0.002450168
0.002589863
0.002678507
0.002710938
0.002703971
0.002668796
0.002609837
0.002536072
0.002456308
0.002373924
0.002279336
0.002179658
0.00212681
0.002175898
0.002262377
0.002127204
0.002144787
0.002160631
0.002168447
0.002170737
0.002169879
0.002192428
0.002264365
0.002365054
0.002469721
0.002563298
0.002634716
0.002672015
0.002667655
0.002640636
0.002641161
0.00271058
0.00278469
0.002788502
0.00270497
0.00256458
0.002404238
0.002258256
0.002163611
0.002165368
0.002283463
0.002458832
0.002606939
0.002691103
0.002717723
0.002696639
0.002641739
0.002565974
0.002483801
0.002403042
0.002315889
0.002225241
0.002167338
0.002212476
0.002262632
0.002120563
0.00216108
0.002187241
0.002198739
0.002198406
0.002192864
0.002210699
0.002276856
0.002368395
0.002461725
0.002543462
0.002607749
0.002641636
0.002633106
0.002598207
0.002586891
0.002643361
0.002727185
0.002768467
0.002729105
0.00262113
0.002475097
0.002316607
0.002171617
0.002077967
0.002107072
0.002278442
0.002486611
0.00262543
0.002691969
0.002696768
0.002659262
0.002589076
0.002510169
0.002433767
0.002348788
0.002250978
0.00217836
0.002221838
0.002274385
0.002173633
0.002219433
0.002239055
0.002243512
0.002233696
0.002219004
0.002233079
0.00229478
0.002376204
0.002452068
0.002517071
0.002570997
0.00260081
0.002592741
0.002558927
0.00254015
0.002577155
0.002658142
0.002723116
0.002728957
0.002661432
0.002543764
0.002397937
0.002242323
0.002100222
0.002011333
0.00207576
0.002294938
0.002490758
0.002611932
0.002657315
0.002653542
0.002605974
0.00252995
0.002451372
0.002361487
0.002259
0.002185262
0.002219735
0.002277825
0.002250648
0.002289629
0.002291433
0.002282686
0.002261234
0.002238123
0.00225181
0.002308762
0.002377542
0.00243087
0.002475565
0.002518883
0.002546901
0.002543271
0.002517872
0.00249697
0.0025165
0.002582869
0.002658383
0.002698901
0.002678168
0.002595613
0.002475915
0.002331856
0.002179558
0.002044657
0.001970451
0.002058211
0.002265808
0.002451688
0.002569363
0.00261957
0.002603427
0.002532685
0.002450013
0.002362097
0.002265826
0.002203433
0.002229354
0.002267474
0.002321588
0.002348801
0.002328214
0.002307351
0.0022741
0.002245016
0.002265194
0.002318567
0.002369918
0.00239727
0.002419859
0.002455433
0.002485466
0.002490732
0.002477757
0.002459997
0.002463988
0.002507285
0.002578178
0.00264074
0.002661047
0.002622249
0.002535271
0.002416465
0.002276029
0.002132032
0.002011678
0.001960643
0.002052054
0.002236545
0.002417542
0.002530876
0.002563448
0.00252
0.002435748
0.002358101
0.002278049
0.002230122
0.002250954
0.002241225
0.002373807
0.002392757
0.002355003
0.002320894
0.002274094
0.002243072
0.00227913
0.00232954
0.002363385
0.002363175
0.002363492
0.002392493
0.002425377
0.002441915
0.002442994
0.002433889
0.002425647
0.002440571
0.002491816
0.002559296
0.002608345
0.002613062
0.002565429
0.002478913
0.002365417
0.00223549
0.002107631
0.002010369
0.001981057
0.002048451
0.002187926
0.002351206
0.002457644
0.0024752
0.0024228
0.00235916
0.002303724
0.002271901
0.002296285
0.002280279
0.00241737
0.002434276
0.002387508
0.002347552
0.002306087
0.002289642
0.002319257
0.002358379
0.002376334
0.002354954
0.002332301
0.002346184
0.002373388
0.002397515
0.002412573
0.002414718
0.002406662
0.002399459
0.002415665
0.002467752
0.002526695
0.002561873
0.002556019
0.002507707
0.002427764
0.002326563
0.002213661
0.002108291
0.00203043
0.00200674
0.002043416
0.002143521
0.002271876
0.002367554
0.002386676
0.002362105
0.002331933
0.002319211
0.002360918
0.002394608
0.00246232
0.002489801
0.00244939
0.002414408
0.002387877
0.00237592
0.00239256
0.002415074
0.002418405
0.002387822
0.002345719
0.002332931
0.002345582
0.00236801
0.002388041
0.002397509
0.00239504
0.002383131
0.002370757
0.002383572
0.002431383
0.002479378
0.002503375
0.002494071
0.002452669
0.002385627
0.002301677
0.002210839
0.002126074
0.002061698
0.002037283
0.002052405
0.002105681
0.002200565
0.002290346
0.002337251
0.002358433
0.002370723
0.002430681
0.002502878
0.002511041
0.002557314
0.00252534
0.002491951
0.002473225
0.002461964
0.002469583
0.002481885
0.002477871
0.002448797
0.002406016
0.002371202
0.00235764
0.002362562
0.002372628
0.00237801
0.00237664
0.002369211
0.002352859
0.002334228
0.002343255
0.002384991
0.002424303
0.00244381
0.002438121
0.002407514
0.002356235
0.002292141
0.002221901
0.002153297
0.002097865
0.002069434
0.002067559
0.002084514
0.00214294
0.002237022
0.002335701
0.002426547
0.002515001
0.002573436
0.002552123
0.002614884
0.002590239
0.002553877
0.002540007
0.00253496
0.002541819
0.002548176
0.002542725
0.002518992
0.002480225
0.002430977
0.002389141
0.002370453
0.002363583
0.002357193
0.002349639
0.002343396
0.00233428
0.002314475
0.002290417
0.002298764
0.002337635
0.002375887
0.002397914
0.002399003
0.002378354
0.002341762
0.002293531
0.00223638
0.002175823
0.002122648
0.002087911
0.002070201
0.002064435
0.002111118
0.002218464
0.002360277
0.002500144
0.002494121
0.002598096
0.002674547
0.002643025
0.002594903
0.002586334
0.002583426
0.002592605
0.002599887
0.002598698
0.002577484
0.002532953
0.002471445
0.002414109
0.002378743
0.002356016
0.002334964
0.002316653
0.00230657
0.002301779
0.002293404
0.00227212
0.002247506
0.002261992
0.002303818
0.00234601
0.002371531
0.002376662
0.002362563
0.002334375
0.00229262
0.002239038
0.002179273
0.002122688
0.002078754
0.002048905
0.00204814
0.002102474
0.002196875
0.002306584
0.002279336
0.002666306
0.002740646
0.002682369
0.002627356
0.002626593
0.002625879
0.002635459
0.002644863
0.00264548
0.002622178
0.002568046
0.002496464
0.002431102
0.002384625
0.002348364
0.002312051
0.002280447
0.002262847
0.002258034
0.002258247
0.002252557
0.002233422
0.002216108
0.002243396
0.002289538
0.002333049
0.002358553
0.002362691
0.002349605
0.002321181
0.002278173
0.002223355
0.002161884
0.002096973
0.002043047
0.002028359
0.002058304
0.002122108
0.002180469
0.002154984
0.002760971
0.002819354
0.002734379
0.002678872
0.002683405
0.002682038
0.002687258
0.002692839
0.002687447
0.002656384
0.002595255
0.002518595
0.002449913
0.002394888
0.002345411
0.002292547
0.002245248
0.002217425
0.002209509
0.002213728
0.002219941
0.002218281
0.002205423
0.00220295
0.002240105
0.002288947
0.002329594
0.002350076
0.002349796
0.002331793
0.002298809
0.002253767
0.00219812
0.002130397
0.002053644
0.00200896
0.002040105
0.002135726
0.002200563
0.002166995
0.002876818
0.002921805
0.002811686
0.002755118
0.002754953
0.002745493
0.002738138
0.002730417
0.002713345
0.002675483
0.002614838
0.002542901
0.002477044
0.00241689
0.002354889
0.002284429
0.002218949
0.002177946
0.002164166
0.002169265
0.002182007
0.002192869
0.002195359
0.002188626
0.002202364
0.002248685
0.002298887
0.002335331
0.002348251
0.002338979
0.002314357
0.002280348
0.002237619
0.002182311
0.00211528
0.002058594
0.002074361
0.002144986
0.002193174
0.002175075
0.002991724
0.003029192
0.002896826
0.002831038
0.002814516
0.002789694
0.002766057
0.002743561
0.002716391
0.002677377
0.002625395
0.002567341
0.002511157
0.002452008
0.002381519
0.00229591
0.002212169
0.00215573
0.002133175
0.002135614
0.002150349
0.002167021
0.002179501
0.002182938
0.002185793
0.00221941
0.002273562
0.002323515
0.002352197
0.002353634
0.002337791
0.002316062
0.002290889
0.002258932
0.002219078
0.002173891
0.002140574
0.002136222
0.002171116
0.002168756
0.003090095
0.003123486
0.002973966
0.002891208
0.002850236
0.002807115
0.002768423
0.002735539
0.002704448
0.002670416
0.002632087
0.002591356
0.002548248
0.002495117
0.002422553
0.002328734
0.002232262
0.002162231
0.002129447
0.002125412
0.00213674
0.002153293
0.002169152
0.002181158
0.002190276
0.002209712
0.002257348
0.002313538
0.002356148
0.002373413
0.002371049
0.002363152
0.002356742
0.00234943
0.002331827
0.00228297
0.002206871
0.002152562
0.002169281
0.002172436
0.003161181
0.003191738
0.003033861
0.002933243
0.002867786
0.002807279
0.002756509
0.002718048
0.002687723
0.002661373
0.002637066
0.002612693
0.002582709
0.002537542
0.00246866
0.0023753
0.002276233
0.00220105
0.002161559
0.002149394
0.002152349
0.002162556
0.002176248
0.002190788
0.00220427
0.002218624
0.002249971
0.002301219
0.002351996
0.002385291
0.00240148
0.002412944
0.002429527
0.002445596
0.002441925
0.002386505
0.002281678
0.002195987
0.002187944
0.002185047
0.003195988
0.003221618
0.003064491
0.002952507
0.002868226
0.002794038
0.002734482
0.002693352
0.002666186
0.002648355
0.00263706
0.002626792
0.00260806
0.002570855
0.002508429
0.002422767
0.00233213
0.002262669
0.002223813
0.002206916
0.002201163
0.002201192
0.002205896
0.002213308
0.002220996
0.002228559
0.002244185
0.002279355
0.00232868
0.002376239
0.002414756
0.002455035
0.002503826
0.00254272
0.002545951
0.002477933
0.002349008
0.00224523
0.00221779
0.002210567
0.003189522
0.003206386
0.00305778
0.002942841
0.002847758
0.002764825
0.002699784
0.002658287
0.002636361
0.002627817
0.002628199
0.002629382
0.002619875
0.002589921
0.002535416
0.002461748
0.002386986
0.002331445
0.002299681
0.002283691
0.00227439
0.002266485
0.002257732
0.002247653
0.002236803
0.002226593
0.002224055
0.002241748
0.002285189
0.002342123
0.002405738
0.002482368
0.002566381
0.002627275
0.002631811
0.002542106
0.002402062
0.002287908
0.002253874
0.002249764
0.003142876
0.003147749
0.003011548
0.002900508
0.002802443
0.002716097
0.002649371
0.002610283
0.002595356
0.002596252
0.002606783
0.002617393
0.002616103
0.002593371
0.002547847
0.002488586
0.002432763
0.002394019
0.002372495
0.002361007
0.002351944
0.00233946
0.002318536
0.002288264
0.002252715
0.00221896
0.002198426
0.002203986
0.002239127
0.002296139
0.002376222
0.002484006
0.002600448
0.002683595
0.002687397
0.002582028
0.002442132
0.002323436
0.002287009
0.002284251
0.003060935
0.003052996
0.002928945
0.002825397
0.002730331
0.002645599
0.002581468
0.002547776
0.002541109
0.002551182
0.002570488
0.002589236
0.002595599
0.002580603
0.002545489
0.002501871
0.002465213
0.002443254
0.002432966
0.002427488
0.002419557
0.002403284
0.002372321
0.002324732
0.002266302
0.002210283
0.002175199
0.002174936
0.002203296
0.002249839
0.002330909
0.002463859
0.002603227
0.00270154
0.002706854
0.00260461
0.002468653
0.002349359
0.002310297
0.002309451
0.002949637
0.002930502
0.002816535
0.00272102
0.002632401
0.002553478
0.002496157
0.002470862
0.002473429
0.002492268
0.002519317
0.002545501
0.00255949
0.002553685
0.002531181
0.002504677
0.002486887
0.00248092
0.0024817
0.002481997
0.002474412
0.002452569
0.002410898
0.002349336
0.00227349
0.002201014
0.002154977
0.002147005
0.002165399
0.002202468
0.002282072
0.002430486
0.002578093
0.002684286
0.002697636
0.002609788
0.00248087
0.002365878
0.002326315
0.002330339
0.002815274
0.002787308
0.002682328
0.002593805
0.002513078
0.002443012
0.002396045
0.002381863
0.002394556
0.002422015
0.002456572
0.002490619
0.002513488
0.002519265
0.00251231
0.002504991
0.002505916
0.002514435
0.002524362
0.00252778
0.002516502
0.00248367
0.00242778
0.002350101
0.002259975
0.002174715
0.002117235
0.002100553
0.002110148
0.002143021
0.002230995
0.002387663
0.002531222
0.002635639
0.002658332
0.002589116
0.002473839
0.002371458
0.002336067
0.002342839
0.002666311
0.002632578
0.00253566
0.002452419
0.002379675
0.002320345
0.002286191
0.00228522
0.002308934
0.002345621
0.002388902
0.002432712
0.002466884
0.002486984
0.002498857
0.002512847
0.002532552
0.002553875
0.002569186
0.002569222
0.002544781
0.002490717
0.002413026
0.002320338
0.002223404
0.002133847
0.002071981
0.002053643
0.002062349
0.002089481
0.002183803
0.002340872
0.00246531
0.002554645
0.002579819
0.002529938
0.002437773
0.002356431
0.002321813
0.002316764
0.002513575
0.002479377
0.002388338
0.002308217
0.002241776
0.002193547
0.002173801
0.002187552
0.002223375
0.002270838
0.002325281
0.002381461
0.00242974
0.00246731
0.002502146
0.002540884
0.002581489
0.002615622
0.002633234
0.002622929
0.002577412
0.002501267
0.002410659
0.002318086
0.002228637
0.002147865
0.002090019
0.00206672
0.002060667
0.002069882
0.002168292
0.002301273
0.002391284
0.002450978
0.002466242
0.002430327
0.002365893
0.002309064
0.002268978
0.002245516
0.002373404
0.002345521
0.002258307
0.002178488
0.002113354
0.002073068
0.002067042
0.002096196
0.002145252
0.00220535
0.002272838
0.002342947
0.002408899
0.002471023
0.002536929
0.002606529
0.002670503
0.002717788
0.002737002
0.002716859
0.002656725
0.002569569
0.00247537
0.002386206
0.002304611
0.002232513
0.002176284
0.002140334
0.002111966
0.002096401
0.002174085
0.002280384
0.002330365
0.002352307
0.002345368
0.002312605
0.002271586
0.002242809
0.002211636
0.002179363
0.002266592
0.002253739
0.002169214
0.002092916
0.00202622
0.0019829
0.001983731
0.002026451
0.00208659
0.002157539
0.002236776
0.002322242
0.002410862
0.002503756
0.002602161
0.002700113
0.002785345
0.002844793
0.002863406
0.00283248
0.002762642
0.002672216
0.002578967
0.002492979
0.00241706
0.002352118
0.002299906
0.002260401
0.002222477
0.002196292
0.002188802
0.002254679
0.0022849
0.002289326
0.002272665
0.002243755
0.002217965
0.002213599
0.002200908
0.002163838
0.002212609
0.002226373
0.00216174
0.002100452
0.002039709
0.001982323
0.001954537
0.001996716
0.00205947
0.002137841
0.002227701
0.00232621
0.00243034
0.002542168
0.002660689
0.00277909
0.002883107
0.002952
0.00296947
0.002935461
0.002865665
0.002782216
0.00269841
0.002620483
0.002550192
0.002486813
0.002428433
0.002383306
0.002357622
0.002328727
0.002260281
0.002236962
0.002235487
0.002239026
0.002233357
0.002221345
0.002220011
0.002241539
0.002258134
0.002224744
0.002228994
0.002260078
0.002215824
0.00215894
0.00211473
0.002072331
0.002035368
0.002066384
0.002123934
0.002201736
0.002290148
0.00238409
0.002485696
0.00260106
0.002725863
0.002847475
0.002948964
0.003010908
0.003019011
0.002978169
0.002910812
0.002834623
0.002761561
0.002694085
0.002629034
0.002561361
0.002490406
0.002437899
0.002430055
0.002425474
0.002352971
0.002315629
0.002314929
0.002317279
0.002302129
0.002276882
0.002270052
0.002290286
0.002309657
0.002245639
0.002210535
0.002256195
0.00225237
0.002195275
0.002161129
0.002126064
0.002097808
0.002140787
0.002212709
0.002299006
0.002391009
0.002485634
0.002586264
0.002694336
0.002798795
0.002885474
0.00294134
0.00295409
0.002919068
0.002851127
0.002773434
0.002701934
0.002640996
0.00258607
0.002529661
0.002464381
0.002394257
0.002351996
0.00236998
0.002400476
0.002392182
0.002380657
0.002376477
0.002364505
0.002336151
0.002299584
0.002271431
0.002258749
0.002232858
0.002102359
0.00277183
0.002401111
0.002342968
0.002413454
0.002483847
0.002535886
0.002561887
0.002589948
0.002635099
0.00268538
0.002721773
0.002757708
0.002806872
0.00284071
0.002815968
0.002720634
0.002605352
0.00252239
0.002483364
0.002506398
0.002590596
0.002692769
0.002785378
0.002853084
0.002886457
0.002884241
0.002847536
0.002788733
0.002737217
0.002686582
0.002609271
0.002531593
0.0024668
0.002405936
0.002350505
0.002310901
0.00227507
0.002219021
0.002256375
0.002340184
0.002348283
0.003718792
0.004297846
0.004198146
0.004032696
0.003910093
0.003768345
0.00358841
0.003409134
0.003261455
0.003159438
0.003091669
0.003052856
0.00304879
0.003066628
0.003095601
0.003131902
0.00316034
0.003181488
0.003209788
0.003178481
0.003098516
0.003050037
0.003104985
0.003294291
0.003543998
0.003765954
0.003939909
0.004126742
0.004245943
0.004376646
0.004556019
0.004758742
0.004953772
0.005091958
0.005131433
0.005031439
0.004756107
0.004304854
0.002235694
0.00237503
0.004305085
0.005307579
0.005315748
0.005388169
0.005408863
0.005248352
0.004958716
0.004602667
0.004247173
0.003917676
0.003626439
0.003401487
0.003274006
0.003239637
0.003264078
0.003298392
0.003332627
0.003377749
0.003518762
0.003666981
0.003803363
0.003979033
0.004225183
0.004526355
0.004859911
0.005183122
0.005454002
0.005665625
0.005787026
0.005885078
0.006035896
0.006223769
0.006398929
0.00649099
0.006423246
0.006144004
0.005619327
0.004814042
0.002191172
0.002297004
0.004741905
0.005873622
0.006034495
0.006375937
0.0064532
0.006404733
0.006243205
0.005929632
0.005453386
0.004881486
0.004289917
0.003784509
0.003471372
0.00334767
0.003347185
0.003368099
0.003391762
0.003432384
0.003606332
0.003872246
0.004170682
0.004522814
0.004913131
0.00527424
0.005585268
0.005864974
0.006109145
0.006308832
0.006464847
0.006634652
0.006861905
0.007119189
0.007345204
0.007461099
0.007369918
0.006993166
0.00628414
0.005193128
0.002235341
0.002243262
0.004943918
0.006038709
0.006614938
0.007098843
0.007182009
0.00721846
0.007146878
0.006909592
0.006454236
0.00576486
0.004955948
0.004157913
0.003630116
0.003406713
0.0033797
0.00341418
0.003446121
0.00348434
0.003643244
0.003951914
0.004345226
0.00482901
0.005345488
0.005784365
0.006092235
0.006313479
0.006482076
0.006630272
0.006783998
0.006980587
0.007237863
0.007525978
0.007787566
0.007945329
0.007884241
0.00747329
0.006642145
0.005368046
0.002293132
0.002216788
0.004632536
0.006164488
0.007233339
0.007525361
0.007633293
0.007711962
0.007703229
0.007515326
0.007097853
0.006376083
0.005453592
0.004478342
0.003775994
0.003465278
0.003414502
0.003473287
0.003531544
0.003579586
0.003696099
0.003956386
0.004318284
0.004826262
0.00542646
0.005981159
0.006352383
0.00658266
0.006739693
0.00686945
0.007014217
0.00720283
0.007443445
0.007712512
0.007963136
0.008128617
0.008083336
0.007646748
0.006733125
0.005364521
0.002333588
0.002281713
0.004426164
0.006537303
0.00742573
0.007729257
0.007824175
0.007876198
0.007869553
0.007706187
0.007315738
0.006663385
0.00573397
0.00470721
0.003926286
0.003561042
0.003492008
0.003578051
0.003665982
0.003735057
0.003798255
0.003947025
0.004161651
0.00454456
0.00509776
0.005720692
0.006254718
0.006566259
0.006765891
0.006927219
0.007092386
0.007285683
0.00751123
0.0077372
0.007918062
0.008094102
0.008069462
0.007603694
0.006633239
0.005221273
0.00236141
0.002312227
0.004389734
0.006513234
0.007408496
0.007737891
0.007797589
0.007774877
0.007708714
0.007532124
0.007180561
0.006627857
0.005816529
0.004870315
0.00408321
0.003702321
0.003615039
0.003723426
0.003859309
0.003961912
0.003979868
0.004008787
0.004040138
0.004189839
0.004549781
0.005059744
0.00568494
0.006210351
0.006514641
0.006748472
0.006966522
0.007188921
0.007403507
0.007470786
0.007496708
0.007651444
0.007894493
0.007443991
0.00645932
0.004941707
0.002387215
0.002312997
0.004265163
0.006249876
0.007223508
0.007596551
0.007654169
0.007576291
0.007441408
0.007237518
0.006927692
0.006478114
0.005841043
0.005006163
0.004243318
0.003865499
0.003752996
0.003877796
0.004102484
0.004251623
0.004259567
0.004207592
0.00409744
0.004000682
0.004078458
0.004356669
0.004780951
0.005391123
0.005966551
0.006337519
0.006646037
0.006923813
0.00708751
0.007061116
0.007041087
0.007110337
0.007371722
0.007250626
0.006299109
0.004704626
0.00242027
0.002272848
0.004061025
0.005819339
0.006969
0.007470862
0.007636164
0.007591342
0.007418251
0.007165315
0.00684556
0.006441706
0.005897042
0.005129896
0.004376417
0.00399574
0.003856524
0.004006368
0.004333482
0.004566304
0.004618728
0.00455075
0.004383439
0.004114621
0.003894739
0.003867206
0.004025027
0.004363614
0.00497848
0.005621162
0.006118518
0.006467653
0.006571299
0.006574478
0.00656386
0.006620736
0.006930644
0.007102842
0.006184798
0.004709238
0.002426363
0.002227647
0.003892006
0.005420707
0.006703697
0.007375042
0.007709223
0.007778373
0.007621822
0.007324604
0.006957622
0.006538945
0.00598553
0.005226204
0.004462414
0.004065493
0.003897439
0.004058885
0.004449886
0.004832629
0.004992837
0.004976583
0.004832806
0.004525772
0.004095661
0.003731294
0.003590174
0.003670852
0.00395422
0.004518849
0.005172929
0.005673984
0.005901644
0.00600776
0.006111807
0.006335557
0.006925049
0.007013181
0.006103748
0.004766167
0.002398058
0.002222587
0.00382007
0.005148609
0.00639456
0.007181633
0.007642601
0.007840455
0.007756382
0.007475086
0.007099139
0.006632889
0.006069111
0.005297161
0.004529625
0.004104326
0.003893682
0.004013616
0.004414354
0.004914289
0.005273929
0.005381443
0.005315679
0.005069241
0.004605518
0.003977534
0.00346964
0.003267364
0.003295958
0.003544258
0.004020184
0.004583195
0.005044261
0.005355345
0.005683039
0.006197144
0.007024353
0.006909286
0.006033685
0.004708149
0.002383419
0.002261093
0.003809419
0.005026317
0.006099059
0.006902411
0.007413221
0.007699413
0.007700697
0.007477682
0.007060948
0.006624838
0.006129434
0.005379623
0.004626678
0.004170434
0.003912721
0.003930905
0.004251068
0.004741263
0.005301209
0.0056246
0.0056996
0.005558642
0.005202349
0.004571237
0.0037589
0.003169069
0.002937686
0.002974696
0.003238109
0.003654529
0.004143911
0.004673901
0.005253118
0.006034555
0.006904979
0.006768512
0.005935061
0.004632099
0.002384968
0.002307535
0.003836429
0.005019712
0.005877557
0.006620665
0.007127308
0.00744851
0.00751006
0.007223335
0.006802218
0.006518892
0.006155254
0.005487886
0.004792269
0.004325189
0.004034031
0.003917327
0.004070839
0.004442391
0.004979012
0.005571212
0.005844391
0.005867916
0.005644739
0.00517626
0.004411831
0.003521556
0.002946321
0.002754086
0.002896824
0.003168112
0.003545583
0.00407234
0.004778196
0.005691159
0.006680439
0.006569036
0.005752279
0.004494249
0.002354394
0.002351686
0.003845167
0.004936473
0.005665256
0.006362485
0.006862356
0.007171116
0.007153763
0.006761844
0.006520108
0.006402376
0.006185394
0.00563294
0.005028539
0.004585507
0.00428606
0.004062234
0.003996704
0.004163866
0.004543981
0.005112732
0.005645192
0.00588288
0.005856838
0.005571868
0.00504453
0.004279591
0.003443389
0.002918534
0.002787163
0.002930519
0.003196346
0.003614747
0.004227236
0.005093636
0.006253351
0.006308265
0.005510107
0.004209349
0.002298853
0.002399171
0.003665917
0.004612206
0.005316872
0.00601592
0.006557551
0.006698602
0.006520477
0.006290606
0.006263521
0.006297538
0.006189053
0.005747001
0.005262128
0.004915116
0.004660171
0.004405612
0.004137845
0.004035757
0.004190354
0.004573866
0.005126047
0.005572652
0.005767196
0.005727228
0.005450133
0.004977254
0.004342442
0.003620961
0.003083812
0.002881791
0.002958932
0.003241012
0.003716134
0.004398803
0.005450468
0.006026491
0.005357582
0.004003524
0.002477926
0.002448229
0.003381457
0.004112488
0.004770309
0.005382535
0.005733577
0.005736692
0.005655777
0.005580359
0.005760951
0.005960644
0.005959256
0.005704704
0.005454506
0.005284763
0.005133195
0.004905443
0.004535811
0.004165392
0.004040717
0.004200543
0.004571824
0.005065379
0.005455504
0.005658806
0.00567583
0.005477915
0.005119046
0.004622811
0.003988381
0.003375315
0.003023415
0.003009747
0.003319763
0.003820943
0.004559295
0.005668135
0.005270732
0.00403915
0.002531514
0.002490832
0.003193649
0.003843719
0.004503945
0.005018804
0.005183935
0.00506977
0.004867819
0.004750421
0.005034646
0.005440431
0.005657228
0.005725246
0.005758789
0.00574421
0.005672115
0.005492864
0.005123646
0.004608436
0.004190922
0.004080754
0.004256912
0.004621851
0.005094699
0.005514683
0.005782079
0.005855941
0.005699908
0.00538818
0.004967128
0.004415794
0.003769355
0.003268457
0.003123905
0.003378399
0.003781053
0.004612854
0.004988705
0.003947031
0.002496699
0.002520502
0.003123107
0.003828148
0.00458156
0.005100903
0.005184915
0.004892545
0.004519397
0.004331921
0.004550138
0.005055843
0.005593315
0.006022809
0.006227446
0.006260665
0.006223771
0.006100276
0.005795813
0.005278427
0.004684088
0.004271814
0.004201402
0.004428515
0.004848885
0.005387123
0.005860039
0.006126699
0.006151701
0.00595968
0.005676362
0.005368279
0.004935211
0.004310395
0.003698126
0.003355355
0.003366696
0.003543934
0.004055243
0.003533195
0.002504832
0.002524973
0.003074499
0.003851881
0.004676686
0.005130097
0.005165423
0.00479061
0.004329538
0.004121339
0.004340818
0.004946669
0.005807292
0.006434691
0.006660363
0.006696225
0.006695961
0.006634855
0.006419379
0.006007815
0.005425876
0.004825947
0.00444026
0.004444159
0.004762615
0.005265319
0.005859001
0.006270845
0.006453987
0.006405953
0.006250742
0.006110649
0.005934453
0.005573841
0.004995996
0.004264551
0.003594255
0.003253739
0.003170223
0.002946729
0.002518195
0.002538377
0.0030184
0.003880347
0.00469012
0.005093521
0.005089929
0.004700325
0.00425626
0.00410968
0.004388164
0.005110269
0.006139312
0.006780954
0.006967407
0.006999389
0.007038747
0.00703256
0.00690066
0.006622582
0.006182585
0.005616291
0.005063262
0.004705651
0.004814553
0.005203176
0.005725566
0.006232424
0.006548618
0.006687981
0.006716239
0.006741501
0.006723949
0.006571523
0.006248626
0.00563549
0.00461251
0.003572045
0.003087411
0.00279602
0.002387071
0.002590267
0.003016232
0.003959186
0.004712078
0.004981545
0.004856477
0.004466132