/*--------------------------------*- C++ -*----------------------------------*\
| =========                 |                                                 |
| \\      /  F ield         | OpenFOAM: The Open Source CFD Toolbox           |
|  \\    /   O peration     | Version:  2212                                  |
|   \\  /    A nd           | Website:  www.openfoam.com                      |
|    \\/     M anipulation  |                                                 |
\*---------------------------------------------------------------------------*/
FoamFile
{
    version     2.0;
    format      ascii;
    arch        "LSB;label=32;scalar=64";
    class       volScalarField;
    location    "3000";
    object      epsilon;
}
// * * * * * * * * * * * * * * * * * * * * * * * * * * * * * * * * * * * * * //

dimensions      [0 2 -3 0 0 0 0];

internalField   nonuniform List<scalar> 
96000
(
1.050876e-05
7.787478e-06
7.421094e-06
7.747723e-06
8.279398e-06
8.886135e-06
9.487973e-06
1.011792e-05
1.082611e-05
1.154822e-05
1.214595e-05
1.256071e-05
1.283233e-05
1.298014e-05
1.262235e-05
1.14589e-05
9.916803e-06
8.823622e-06
8.709951e-06
9.477447e-06
1.074422e-05
1.210056e-05
1.331027e-05
1.423117e-05
1.470558e-05
1.460584e-05
1.399966e-05
1.312907e-05
1.228012e-05
1.142229e-05
1.040495e-05
9.355318e-06
8.386111e-06
7.518164e-06
6.771385e-06
6.200195e-06
5.804178e-06
5.499261e-06
5.744725e-06
5.562983e-06
7.535577e-06
6.635621e-06
7.006048e-06
7.622436e-06
8.322981e-06
9.036435e-06
9.73001e-06
1.048373e-05
1.133524e-05
1.226508e-05
1.314398e-05
1.387607e-05
1.445626e-05
1.484382e-05
1.47875e-05
1.384414e-05
1.210616e-05
1.059383e-05
1.034893e-05
1.14205e-05
1.31174e-05
1.481453e-05
1.596165e-05
1.637663e-05
1.586581e-05
1.46109e-05
1.305298e-05
1.166064e-05
1.066424e-05
9.825748e-06
8.964231e-06
8.14768e-06
7.439263e-06
6.837971e-06
6.350201e-06
6.004507e-06
5.832241e-06
5.804264e-06
6.177151e-06
5.746117e-06
6.46288e-06
5.823297e-06
6.303954e-06
7.076588e-06
8.046332e-06
8.992906e-06
9.903081e-06
1.082595e-05
1.174971e-05
1.266163e-05
1.348628e-05
1.416432e-05
1.467065e-05
1.499138e-05
1.498168e-05
1.431384e-05
1.275393e-05
1.098657e-05
1.010352e-05
1.070569e-05
1.214515e-05
1.373324e-05
1.481859e-05
1.505898e-05
1.444997e-05
1.331674e-05
1.197948e-05
1.067593e-05
9.565065e-06
8.662271e-06
7.860952e-06
7.14756e-06
6.542085e-06
6.039373e-06
5.640757e-06
5.344674e-06
5.180095e-06
5.204567e-06
5.670361e-06
5.30867e-06
5.554239e-06
5.239342e-06
5.752721e-06
6.730828e-06
7.869889e-06
8.942919e-06
9.999285e-06
1.10472e-05
1.20475e-05
1.296863e-05
1.378654e-05
1.445525e-05
1.49123e-05
1.517301e-05
1.520184e-05
1.47796e-05
1.355128e-05
1.165677e-05
1.0054e-05
9.764986e-06
1.068633e-05
1.207751e-05
1.324408e-05
1.380288e-05
1.365421e-05
1.297696e-05
1.201125e-05
1.092708e-05
9.864044e-06
8.895482e-06
8.018952e-06
7.232557e-06
6.558366e-06
6.002854e-06
5.561537e-06
5.223871e-06
5.029849e-06
5.047344e-06
5.493911e-06
5.337113e-06
5.530553e-06
5.039978e-06
5.458653e-06
6.610255e-06
7.704407e-06
8.776388e-06
9.872635e-06
1.097943e-05
1.20408e-05
1.303889e-05
1.395017e-05
1.474191e-05
1.522881e-05
1.539983e-05
1.537175e-05
1.502271e-05
1.413364e-05
1.234056e-05
1.028395e-05
9.116616e-06
9.358386e-06
1.040471e-05
1.157028e-05
1.235432e-05
1.257433e-05
1.232595e-05
1.178556e-05
1.102624e-05
1.014222e-05
9.234317e-06
8.364345e-06
7.567644e-06
6.876531e-06
6.298273e-06
5.81873e-06
5.415252e-06
5.136487e-06
5.119785e-06
5.585574e-06
5.618982e-06
5.788796e-06
5.315063e-06
5.793018e-06
6.599868e-06
7.429065e-06
8.296349e-06
9.317598e-06
1.04632e-05
1.162937e-05
1.27681e-05
1.382562e-05
1.472605e-05
1.523069e-05
1.52221e-05
1.50596e-05
1.472144e-05
1.418684e-05
1.275189e-05
1.063767e-05
8.902651e-06
8.431893e-06
9.007586e-06
1.006334e-05
1.102863e-05
1.15859e-05
1.170685e-05
1.149759e-05
1.100643e-05
1.030463e-05
9.496991e-06
8.674966e-06
7.903455e-06
7.223615e-06
6.637146e-06
6.11918e-06
5.63927e-06
5.24856e-06
5.169199e-06
5.660235e-06
5.896747e-06
6.263628e-06
5.876513e-06
6.147745e-06
6.574762e-06
7.058897e-06
7.620612e-06
8.448417e-06
9.543291e-06
1.076892e-05
1.202395e-05
1.320756e-05
1.41796e-05
1.46525e-05
1.446824e-05
1.418815e-05
1.389325e-05
1.374462e-05
1.284579e-05
1.099277e-05
9.034225e-06
7.974846e-06
8.024007e-06
8.837176e-06
9.894152e-06
1.074434e-05
1.121664e-05
1.129232e-05
1.103276e-05
1.050734e-05
9.811251e-06
9.04474e-06
8.293333e-06
7.611394e-06
6.998719e-06
6.417825e-06
5.838883e-06
5.322661e-06
5.162445e-06
5.659183e-06
6.101659e-06
6.582533e-06
6.13204e-06
6.176978e-06
6.351351e-06
6.584114e-06
6.871888e-06
7.444995e-06
8.405565e-06
9.595482e-06
1.087075e-05
1.208436e-05
1.306514e-05
1.353069e-05
1.329358e-05
1.295641e-05
1.274737e-05
1.301902e-05
1.274341e-05
1.13176e-05
9.373754e-06
7.918108e-06
7.399839e-06
7.791989e-06
8.760788e-06
9.812369e-06
1.063159e-05
1.106598e-05
1.106286e-05
1.074215e-05
1.018937e-05
9.49667e-06
8.762263e-06
8.050585e-06
7.380768e-06
6.71639e-06
6.007035e-06
5.347196e-06
5.094602e-06
5.597344e-06
6.225428e-06
6.401875e-06
6.005556e-06
5.908562e-06
5.963235e-06
6.050023e-06
6.152538e-06
6.510453e-06
7.309462e-06
8.402724e-06
9.620833e-06
1.080268e-05
1.177318e-05
1.228326e-05
1.210597e-05
1.173167e-05
1.160954e-05
1.22154e-05
1.250762e-05
1.15914e-05
9.834536e-06
8.1508e-06
7.087703e-06
6.883062e-06
7.478138e-06
8.570414e-06
9.708689e-06
1.060814e-05
1.101019e-05
1.095009e-05
1.057461e-05
9.981085e-06
9.263909e-06
8.500208e-06
7.746942e-06
6.992669e-06
6.173892e-06
5.362876e-06
4.998826e-06
5.504408e-06
6.305097e-06
5.794229e-06
5.593925e-06
5.524881e-06
5.578797e-06
5.633681e-06
5.675109e-06
5.917012e-06
6.596368e-06
7.600285e-06
8.74828e-06
9.878476e-06
1.082246e-05
1.136547e-05
1.123036e-05
1.079887e-05
1.0685e-05
1.141713e-05
1.211666e-05
1.174532e-05
1.033467e-05
8.613829e-06
7.158128e-06
6.308779e-06
6.267155e-06
7.010276e-06
8.294257e-06
9.678629e-06
1.064495e-05
1.10301e-05
1.091456e-05
1.044446e-05
9.731212e-06
8.913918e-06
8.079106e-06
7.255579e-06
6.386848e-06
5.544037e-06
5.155726e-06
5.556523e-06
6.332426e-06
5.254015e-06
5.304487e-06
5.388992e-06
5.513661e-06
5.596293e-06
5.645732e-06
5.851341e-06
6.463693e-06
7.38668e-06
8.445925e-06
9.487365e-06
1.036151e-05
1.086384e-05
1.071033e-05
1.019237e-05
9.981414e-06
1.063694e-05
1.153181e-05
1.168034e-05
1.075336e-05
9.211016e-06
7.605462e-06
6.304882e-06
5.561763e-06
5.62515e-06
6.633697e-06
8.263811e-06
9.753784e-06
1.071954e-05
1.103741e-05
1.076454e-05
1.010181e-05
9.262538e-06
8.389404e-06
7.544335e-06
6.697574e-06
5.911279e-06
5.460871e-06
5.823644e-06
6.346297e-06
5.1719e-06
5.407862e-06
5.580133e-06
5.75179e-06
5.825641e-06
5.845665e-06
6.019383e-06
6.581495e-06
7.416832e-06
8.361901e-06
9.280228e-06
1.005663e-05
1.049195e-05
1.032322e-05
9.766296e-06
9.447991e-06
9.906955e-06
1.082383e-05
1.136146e-05
1.098207e-05
9.789375e-06
8.274028e-06
6.79327e-06
5.591312e-06
4.900399e-06
5.126955e-06
6.521954e-06
8.423477e-06
9.916061e-06
1.070043e-05
1.076561e-05
1.032432e-05
9.54615e-06
8.684174e-06
7.841321e-06
6.991602e-06
6.142156e-06
5.551753e-06
5.901281e-06
6.389029e-06
5.54305e-06
5.848886e-06
5.989391e-06
6.129311e-06
6.135763e-06
6.079977e-06
6.21597e-06
6.733183e-06
7.470955e-06
8.251215e-06
8.99399e-06
9.648149e-06
1.002341e-05
9.885855e-06
9.392293e-06
9.029437e-06
9.253584e-06
1.005083e-05
1.079182e-05
1.091582e-05
1.019744e-05
8.947213e-06
7.519175e-06
6.15504e-06
5.048882e-06
4.421878e-06
4.869568e-06
6.596543e-06
8.496023e-06
9.822554e-06
1.035438e-05
1.029943e-05
9.747211e-06
8.892821e-06
8.02552e-06
7.133888e-06
6.22606e-06
5.614492e-06
5.895459e-06
6.460561e-06
6.156339e-06
6.44344e-06
6.453608e-06
6.492791e-06
6.401861e-06
6.265772e-06
6.386363e-06
6.848747e-06
7.466855e-06
8.025145e-06
8.552913e-06
9.07806e-06
9.416427e-06
9.359044e-06
9.010495e-06
8.673286e-06
8.720666e-06
9.289615e-06
1.00573e-05
1.052473e-05
1.034121e-05
9.465287e-06
8.251825e-06
6.916192e-06
5.654315e-06
4.660922e-06
4.153479e-06
4.742695e-06
6.39156e-06
8.138597e-06
9.342675e-06
9.865479e-06
9.666057e-06
8.9098e-06
8.036211e-06
7.166151e-06
6.297816e-06
5.767891e-06
5.99553e-06
6.417855e-06
6.797596e-06
7.00734e-06
6.825462e-06
6.749567e-06
6.554814e-06
6.368548e-06
6.517384e-06
6.927247e-06
7.380167e-06
7.673728e-06
7.960073e-06
8.374862e-06
8.717455e-06
8.788633e-06
8.632558e-06
8.379691e-06
8.308936e-06
8.608171e-06
9.235297e-06
9.866525e-06
1.010188e-05
9.717252e-06
8.825096e-06
7.677055e-06
6.4387e-06
5.300941e-06
4.448507e-06
4.104718e-06
4.697858e-06
6.121812e-06
7.749237e-06
8.860757e-06
9.176431e-06
8.722664e-06
7.905182e-06
7.155262e-06
6.42378e-06
6.005489e-06
6.198412e-06
6.21354e-06
7.293666e-06
7.441081e-06
7.097808e-06
6.885701e-06
6.578054e-06
6.396084e-06
6.607061e-06
6.981698e-06
7.27369e-06
7.295439e-06
7.349084e-06
7.677501e-06
8.038126e-06
8.233852e-06
8.264794e-06
8.158621e-06
8.023681e-06
8.066723e-06
8.444071e-06
9.033777e-06
9.512407e-06
9.570294e-06
9.100713e-06
8.252258e-06
7.207753e-06
6.110288e-06
5.129807e-06
4.446861e-06
4.231029e-06
4.660159e-06
5.707393e-06
7.113402e-06
8.083796e-06
8.232635e-06
7.744002e-06
7.195463e-06
6.690107e-06
6.402461e-06
6.620254e-06
6.556151e-06
7.663305e-06
7.779843e-06
7.3532e-06
7.050641e-06
6.737157e-06
6.609293e-06
6.829584e-06
7.153719e-06
7.313229e-06
7.127951e-06
6.964682e-06
7.15043e-06
7.451094e-06
7.719589e-06
7.901465e-06
7.953826e-06
7.881543e-06
7.772997e-06
7.82242e-06
8.196578e-06
8.69168e-06
9.012985e-06
8.954559e-06
8.496235e-06
7.752165e-06
6.862041e-06
5.935806e-06
5.136133e-06
4.582134e-06
4.397111e-06
4.621408e-06
5.346238e-06
6.393363e-06
7.216857e-06
7.386269e-06
7.22199e-06
7.000497e-06
6.881037e-06
7.251832e-06
7.634427e-06
7.989029e-06
8.169975e-06
7.802055e-06
7.526397e-06
7.308325e-06
7.200615e-06
7.339973e-06
7.546787e-06
7.587415e-06
7.319438e-06
6.97313e-06
6.924442e-06
7.104266e-06
7.364765e-06
7.598615e-06
7.732282e-06
7.749833e-06
7.657893e-06
7.508819e-06
7.513842e-06
7.835125e-06
8.211111e-06
8.408716e-06
8.316129e-06
7.945273e-06
7.353622e-06
6.641094e-06
5.910506e-06
5.267355e-06
4.801707e-06
4.609973e-06
4.688314e-06
5.055269e-06
5.789876e-06
6.533872e-06
6.981304e-06
7.297941e-06
7.452807e-06
7.998169e-06
8.753699e-06
8.343413e-06
8.696485e-06
8.417982e-06
8.154571e-06
7.997325e-06
7.886393e-06
7.951742e-06
8.080459e-06
8.060028e-06
7.80782e-06
7.449277e-06
7.196936e-06
7.148216e-06
7.256227e-06
7.400683e-06
7.497344e-06
7.530218e-06
7.502251e-06
7.374023e-06
7.171958e-06
7.134342e-06
7.391338e-06
7.676482e-06
7.825243e-06
7.772474e-06
7.516855e-06
7.084756e-06
6.557099e-06
6.00031e-06
5.478343e-06
5.067434e-06
4.844402e-06
4.803173e-06
4.899541e-06
5.327351e-06
6.08648e-06
7.025726e-06
7.999146e-06
8.870266e-06
9.480885e-06
8.637688e-06
9.156651e-06
8.980682e-06
8.697825e-06
8.59756e-06
8.550009e-06
8.616244e-06
8.695359e-06
8.666289e-06
8.46958e-06
8.145679e-06
7.733814e-06
7.401109e-06
7.286292e-06
7.274004e-06
7.261802e-06
7.23696e-06
7.221103e-06
7.172041e-06
7.010425e-06
6.766258e-06
6.724796e-06
6.951884e-06
7.224123e-06
7.39765e-06
7.413493e-06
7.25549e-06
6.96052e-06
6.574493e-06
6.12491e-06
5.659861e-06
5.256712e-06
4.986694e-06
4.829626e-06
4.75137e-06
5.068439e-06
5.939759e-06
7.259239e-06
8.688748e-06
8.564338e-06
9.00999e-06
9.706603e-06
9.505531e-06
9.107412e-06
9.05493e-06
9.032477e-06
9.136726e-06
9.231984e-06
9.248683e-06
9.076363e-06
8.673832e-06
8.110861e-06
7.606335e-06
7.326218e-06
7.16518e-06
7.019094e-06
6.897715e-06
6.846653e-06
6.834575e-06
6.781586e-06
6.603253e-06
6.361406e-06
6.38126e-06
6.636572e-06
6.948223e-06
7.159677e-06
7.221406e-06
7.122167e-06
6.904493e-06
6.574212e-06
6.151875e-06
5.692154e-06
5.269829e-06
4.937814e-06
4.681098e-06
4.628593e-06
4.995321e-06
5.748116e-06
6.725632e-06
6.429137e-06
9.675939e-06
1.044116e-05
9.96537e-06
9.451951e-06
9.471071e-06
9.479791e-06
9.612139e-06
9.749228e-06
9.790648e-06
9.569179e-06
9.032762e-06
8.336479e-06
7.734985e-06
7.341392e-06
7.053721e-06
6.772221e-06
6.538358e-06
6.424778e-06
6.411604e-06
6.431559e-06
6.392032e-06
6.225283e-06
6.054213e-06
6.187028e-06
6.491866e-06
6.826298e-06
7.046736e-06
7.105716e-06
7.0169e-06
6.795505e-06
6.452454e-06
6.024304e-06
5.564936e-06
5.103456e-06
4.704382e-06
4.54327e-06
4.692439e-06
5.108423e-06
5.539144e-06
5.353418e-06
1.073647e-05
1.141981e-05
1.060576e-05
1.004183e-05
1.011894e-05
1.013393e-05
1.023651e-05
1.034163e-05
1.030798e-05
9.972049e-06
9.317565e-06
8.535767e-06
7.881226e-06
7.394338e-06
6.980945e-06
6.555032e-06
6.195213e-06
6.004261e-06
5.968138e-06
6.020155e-06
6.080804e-06
6.069558e-06
5.953825e-06
5.906078e-06
6.125882e-06
6.469441e-06
6.794288e-06
6.983592e-06
7.004206e-06
6.867587e-06
6.601427e-06
6.244587e-06
5.825658e-06
5.347979e-06
4.833878e-06
4.472112e-06
4.607869e-06
5.241355e-06
5.699222e-06
5.447392e-06
1.221714e-05
1.283324e-05
1.163841e-05
1.100247e-05
1.102755e-05
1.094958e-05
1.089734e-05
1.083134e-05
1.064278e-05
1.02066e-05
9.528481e-06
8.767379e-06
8.11759e-06
7.560323e-06
7.018572e-06
6.434519e-06
5.930381e-06
5.644724e-06
5.568829e-06
5.628254e-06
5.739425e-06
5.83129e-06
5.851584e-06
5.797813e-06
5.863805e-06
6.167475e-06
6.545232e-06
6.852614e-06
6.985183e-06
6.91909e-06
6.715374e-06
6.439056e-06
6.112695e-06
5.717463e-06
5.260058e-06
4.857547e-06
4.899139e-06
5.373261e-06
5.712861e-06
5.537755e-06
1.386507e-05
1.447324e-05
1.285632e-05
1.203824e-05
1.185193e-05
1.156059e-05
1.128163e-05
1.101225e-05
1.068609e-05
1.022691e-05
9.636871e-06
9.009493e-06
8.436951e-06
7.863896e-06
7.21762e-06
6.482684e-06
5.825002e-06
5.426608e-06
5.29206e-06
5.334189e-06
5.459207e-06
5.595113e-06
5.697255e-06
5.733833e-06
5.757663e-06
5.967227e-06
6.36242e-06
6.765555e-06
7.020545e-06
7.044558e-06
6.906592e-06
6.720024e-06
6.522394e-06
6.291397e-06
6.011771e-06
5.688556e-06
5.426612e-06
5.363669e-06
5.590885e-06
5.520832e-06
1.543048e-05
1.606268e-05
1.403357e-05
1.290503e-05
1.237098e-05
1.181315e-05
1.132287e-05
1.091267e-05
1.05347e-05
1.013485e-05
9.700584e-06
9.256718e-06
8.804985e-06
8.266494e-06
7.566674e-06
6.724783e-06
5.939651e-06
5.430468e-06
5.223415e-06
5.222005e-06
5.323246e-06
5.458384e-06
5.589422e-06
5.697131e-06
5.785261e-06
5.932288e-06
6.269725e-06
6.711655e-06
7.071237e-06
7.223129e-06
7.196641e-06
7.119195e-06
7.06603e-06
7.02385e-06
6.913697e-06
6.55839e-06
5.968472e-06
5.549412e-06
5.6325e-06
5.602328e-06
1.66848e-05
1.734482e-05
1.502307e-05
1.354194e-05
1.263708e-05
1.182545e-05
1.11738e-05
1.069564e-05
1.033e-05
1.002319e-05
9.750177e-06
9.48471e-06
9.163804e-06
8.68762e-06
7.990055e-06
7.110121e-06
6.264567e-06
5.692229e-06
5.427942e-06
5.367404e-06
5.409762e-06
5.500821e-06
5.620776e-06
5.752547e-06
5.882755e-06
6.018714e-06
6.257175e-06
6.647137e-06
7.061923e-06
7.344031e-06
7.4756e-06
7.561874e-06
7.708189e-06
7.877917e-06
7.895166e-06
7.472891e-06
6.606306e-06
5.939761e-06
5.833937e-06
5.754992e-06
1.740356e-05
1.803803e-05
1.560608e-05
1.386929e-05
1.266956e-05
1.166391e-05
1.09046e-05
1.040158e-05
1.00787e-05
9.87292e-06
9.748844e-06
9.639901e-06
9.435958e-06
9.030864e-06
8.374838e-06
7.532061e-06
6.71922e-06
6.161885e-06
5.885873e-06
5.783817e-06
5.760418e-06
5.777467e-06
5.833324e-06
5.913678e-06
6.000923e-06
6.092792e-06
6.234375e-06
6.500606e-06
6.885048e-06
7.276758e-06
7.596099e-06
7.942533e-06
8.409863e-06
8.827958e-06
8.930631e-06
8.358213e-06
7.208313e-06
6.364905e-06
6.105397e-06
5.983591e-06
1.744152e-05
1.796111e-05
1.561479e-05
1.379092e-05
1.242573e-05
1.130848e-05
1.049418e-05
9.99851e-06
9.742984e-06
9.644747e-06
9.651934e-06
9.669472e-06
9.563611e-06
9.229317e-06
8.642394e-06
7.896138e-06
7.199824e-06
6.732676e-06
6.495437e-06
6.392191e-06
6.338416e-06
6.292348e-06
6.240717e-06
6.178333e-06
6.111703e-06
6.055608e-06
6.059306e-06
6.20489e-06
6.536616e-06
6.98923e-06
7.511161e-06
8.192571e-06
9.03283e-06
9.727475e-06
9.874439e-06
9.021064e-06
7.705128e-06
6.737331e-06
6.422222e-06
6.30426e-06
1.680754e-05
1.713805e-05
1.500795e-05
1.325876e-05
1.186704e-05
1.072923e-05
9.918418e-06
9.466387e-06
9.296349e-06
9.302824e-06
9.419262e-06
9.537803e-06
9.520285e-06
9.26162e-06
8.764828e-06
8.155013e-06
7.623391e-06
7.289249e-06
7.127113e-06
7.055679e-06
7.002165e-06
6.914641e-06
6.75336e-06
6.50979e-06
6.226406e-06
5.968758e-06
5.828772e-06
5.892589e-06
6.174593e-06
6.613786e-06
7.246563e-06
8.192017e-06
9.373256e-06
1.036298e-05
1.05239e-05
9.448478e-06
8.091067e-06
7.045142e-06
6.709099e-06
6.594542e-06
1.562354e-05
1.574024e-05
1.387409e-05
1.230334e-05
1.099705e-05
9.923389e-06
9.177279e-06
8.803441e-06
8.727276e-06
8.828446e-06
9.032029e-06
9.232313e-06
9.294998e-06
9.119413e-06
8.733736e-06
8.282707e-06
7.932951e-06
7.748678e-06
7.684306e-06
7.666664e-06
7.623779e-06
7.499363e-06
7.235193e-06
6.822323e-06
6.327309e-06
5.87742e-06
5.622132e-06
5.647313e-06
5.886837e-06
6.245027e-06
6.840903e-06
7.98052e-06
9.383664e-06
1.055947e-05
1.074255e-05
9.689833e-06
8.340768e-06
7.256466e-06
6.892932e-06
6.795823e-06
1.404998e-05
1.397931e-05
1.237817e-05
1.102949e-05
9.874201e-06
8.929309e-06
8.299471e-06
8.031492e-06
8.049996e-06
8.231841e-06
8.50271e-06
8.769776e-06
8.907013e-06
8.828471e-06
8.577355e-06
8.302911e-06
8.139789e-06
8.109759e-06
8.153427e-06
8.195314e-06
8.159209e-06
7.97955e-06
7.604706e-06
7.048857e-06
6.386112e-06
5.796001e-06
5.458303e-06
5.4239e-06
5.584155e-06
5.862364e-06
6.408424e-06
7.63944e-06
9.082548e-06
1.032058e-05
1.060627e-05
9.726737e-06
8.438214e-06
7.375136e-06
7.001073e-06
6.954889e-06
1.225224e-05
1.20441e-05
1.070151e-05
9.58389e-06
8.605345e-06
7.825079e-06
7.34248e-06
7.196078e-06
7.305151e-06
7.554719e-06
7.880623e-06
8.210219e-06
8.427912e-06
8.465809e-06
8.374744e-06
8.295764e-06
8.320369e-06
8.436495e-06
8.57669e-06
8.655695e-06
8.585728e-06
8.293872e-06
7.773908e-06
7.059533e-06
6.278894e-06
5.599713e-06
5.184837e-06
5.086299e-06
5.172852e-06
5.398276e-06
5.962831e-06
7.211993e-06
8.553322e-06
9.711628e-06
1.009453e-05
9.453454e-06
8.324985e-06
7.384286e-06
7.050421e-06
7.045187e-06
1.040319e-05
1.012159e-05
9.019491e-06
8.117374e-06
7.315446e-06
6.708351e-06
6.380375e-06
6.357239e-06
6.549963e-06
6.861077e-06
7.24415e-06
7.646347e-06
7.96074e-06
8.134614e-06
8.230348e-06
8.365113e-06
8.580021e-06
8.829764e-06
9.029785e-06
9.075008e-06
8.860854e-06
8.34007e-06
7.6047e-06
6.778599e-06
5.982267e-06
5.305205e-06
4.876149e-06
4.768686e-06
4.843789e-06
5.006842e-06
5.574733e-06
6.776449e-06
7.867159e-06
8.783982e-06
9.152452e-06
8.751821e-06
7.908389e-06
7.193259e-06
6.87119e-06
6.771836e-06
8.675012e-06
8.389476e-06
7.493623e-06
6.75822e-06
6.11517e-06
5.666821e-06
5.48598e-06
5.579042e-06
5.850557e-06
6.226897e-06
6.682001e-06
7.174843e-06
7.606858e-06
7.940634e-06
8.259466e-06
8.642637e-06
9.075913e-06
9.464762e-06
9.686969e-06
9.607102e-06
9.147097e-06
8.387398e-06
7.539683e-06
6.739301e-06
6.021355e-06
5.418021e-06
5.01724e-06
4.8724e-06
4.838311e-06
4.877071e-06
5.480381e-06
6.448168e-06
7.174625e-06
7.723241e-06
7.935869e-06
7.688203e-06
7.167023e-06
6.716251e-06
6.362134e-06
6.116761e-06
7.258191e-06
7.02373e-06
6.282103e-06
5.643982e-06
5.10678e-06
4.776144e-06
4.716687e-06
4.914015e-06
5.263591e-06
5.715195e-06
6.255791e-06
6.850168e-06
7.43034e-06
7.991981e-06
8.621485e-06
9.334754e-06
1.0035e-05
1.057933e-05
1.081021e-05
1.059995e-05
9.950464e-06
9.044316e-06
8.135151e-06
7.339446e-06
6.658564e-06
6.090251e-06
5.669902e-06
5.413863e-06
5.212256e-06
5.083308e-06
5.576005e-06
6.319962e-06
6.672667e-06
6.833637e-06
6.802701e-06
6.579636e-06
6.294907e-06
6.117264e-06
5.867124e-06
5.579172e-06
6.301493e-06
6.182772e-06
5.543252e-06
4.968537e-06
4.476769e-06
4.170793e-06
4.170233e-06
4.452643e-06
4.866771e-06
5.385015e-06
6.005122e-06
6.717785e-06
7.498213e-06
8.363143e-06
9.350528e-06
1.041349e-05
1.139992e-05
1.210965e-05
1.230691e-05
1.192232e-05
1.110533e-05
1.01095e-05
9.157194e-06
8.34307e-06
7.669451e-06
7.120273e-06
6.694587e-06
6.378291e-06
6.076459e-06
5.873484e-06
5.750385e-06
6.169901e-06
6.3419e-06
6.338464e-06
6.216687e-06
6.020174e-06
5.857304e-06
5.877102e-06
5.783413e-06
5.482802e-06
5.843852e-06
5.963041e-06
5.480272e-06
5.000258e-06
4.556296e-06
4.164036e-06
3.988054e-06
4.275962e-06
4.713211e-06
5.283869e-06
5.988419e-06
6.818437e-06
7.75518e-06
8.843686e-06
1.010861e-05
1.148646e-05
1.277611e-05
1.362518e-05
1.374703e-05
1.319466e-05
1.230105e-05
1.133177e-05
1.042816e-05
9.647035e-06
8.983946e-06
8.406637e-06
7.879827e-06
7.482466e-06
7.276426e-06
7.016486e-06
6.391185e-06
6.09334e-06
5.991759e-06
5.972292e-06
5.925366e-06
5.855986e-06
5.888666e-06
6.117976e-06
6.27504e-06
6.002572e-06
5.959583e-06
6.23144e-06
5.879808e-06
5.395895e-06
5.063593e-06
4.75804e-06
4.507297e-06
4.742495e-06
5.176851e-06
5.781445e-06
6.518845e-06
7.362581e-06
8.347387e-06
9.568018e-06
1.100514e-05
1.25106e-05
1.381154e-05
1.454576e-05
1.448274e-05
1.37736e-05
1.282275e-05
1.189891e-05
1.10966e-05
1.040537e-05
9.770105e-06
9.120225e-06
8.448027e-06
7.982906e-06
7.979216e-06
7.960054e-06
7.243092e-06
6.815237e-06
6.719248e-06
6.687662e-06
6.552001e-06
6.364683e-06
6.35056e-06
6.583051e-06
6.778765e-06
6.222119e-06
5.817536e-06
6.180903e-06
6.149004e-06
5.641376e-06
5.397194e-06
5.160844e-06
4.974405e-06
5.295972e-06
5.852398e-06
6.557006e-06
7.36038e-06
8.24821e-06
9.268223e-06
1.044805e-05
1.167259e-05
1.274352e-05
1.343141e-05
1.352465e-05
1.298991e-05
1.209051e-05
1.116842e-05
1.040047e-05
9.789354e-06
9.264288e-06
8.736502e-06
8.127746e-06
7.491391e-06
7.145055e-06
7.378866e-06
7.701706e-06
7.602631e-06
7.407325e-06
7.277747e-06
7.119234e-06
6.868599e-06
6.584795e-06
6.392192e-06
6.338779e-06
6.141611e-06
5.115642e-06
1.188177e-05
7.738817e-06
6.913773e-06
7.359504e-06
7.94884e-06
8.473442e-06
8.853569e-06
9.270243e-06
9.823255e-06
1.044006e-05
1.09921e-05
1.152706e-05
1.210465e-05
1.250266e-05
1.216566e-05
1.094519e-05
9.599896e-06
8.745266e-06
8.387479e-06
8.657872e-06
9.600215e-06
1.081139e-05
1.198647e-05
1.290792e-05
1.338988e-05
1.334462e-05
1.277507e-05
1.190686e-05
1.120114e-05
1.058387e-05
9.709155e-06
8.883258e-06
8.227347e-06
7.639711e-06
7.124823e-06
6.766866e-06
6.447626e-06
5.960291e-06
6.259997e-06
6.99685e-06
7.007105e-06
3.170717e-06
2.770019e-06
3.121267e-06
3.48937e-06
3.694472e-06
3.811335e-06
3.997873e-06
4.277821e-06
4.630304e-06
5.011837e-06
5.469926e-06
6.029391e-06
6.490418e-06
6.543688e-06
5.906739e-06
4.989235e-06
4.351386e-06
4.062193e-06
3.95285e-06
3.935712e-06
4.067155e-06
4.176688e-06
3.99691e-06
3.659122e-06
3.488949e-06
3.514209e-06
3.537972e-06
3.41152e-06
3.255177e-06
3.142563e-06
3.103772e-06
3.116642e-06
3.161597e-06
3.211827e-06
3.234816e-06
3.22936e-06
3.197715e-06
3.765597e-06
6.118502e-06
7.221056e-06
2.507317e-06
2.279302e-06
2.602151e-06
2.749989e-06
2.785253e-06
2.859144e-06
2.990572e-06
3.191811e-06
3.454374e-06
3.782073e-06
4.214093e-06
4.778181e-06
5.36335e-06
5.732078e-06
5.597345e-06
5.004099e-06
4.347864e-06
3.944392e-06
3.739642e-06
3.581794e-06
3.40671e-06
3.20474e-06
3.001981e-06
2.847311e-06
2.75287e-06
2.716628e-06
2.691365e-06
2.593943e-06
2.462044e-06
2.354908e-06
2.305398e-06
2.30287e-06
2.332618e-06
2.365438e-06
2.359506e-06
2.337829e-06
2.401534e-06
3.124175e-06
5.775098e-06
6.617331e-06
2.455622e-06
2.325266e-06
2.612248e-06
2.654159e-06
2.711965e-06
2.77941e-06
2.841094e-06
2.92087e-06
3.065542e-06
3.283365e-06
3.625912e-06
4.155929e-06
4.813207e-06
5.369988e-06
5.525817e-06
5.201381e-06
4.556961e-06
4.011054e-06
3.682957e-06
3.515894e-06
3.365927e-06
3.175851e-06
2.985246e-06
2.836874e-06
2.723944e-06
2.623169e-06
2.527718e-06
2.416597e-06
2.290916e-06
2.186369e-06
2.12803e-06
2.115856e-06
2.139244e-06
2.173819e-06
2.184997e-06
2.194227e-06
2.304103e-06
3.012889e-06
6.075627e-06
6.263485e-06
2.468717e-06
2.428053e-06
2.569047e-06
2.58177e-06
2.683915e-06
2.790824e-06
2.883418e-06
2.948161e-06
3.013486e-06
3.139541e-06
3.364324e-06
3.817814e-06
4.497836e-06
5.155636e-06
5.473289e-06
5.303259e-06
4.708958e-06
4.055968e-06
3.593907e-06
3.373684e-06
3.251513e-06
3.113082e-06
2.967065e-06
2.841992e-06
2.736079e-06
2.623419e-06
2.499759e-06
2.369511e-06
2.244266e-06
2.143813e-06
2.085419e-06
2.075942e-06
2.109262e-06
2.163703e-06
2.202285e-06
2.230261e-06
2.347807e-06
3.056375e-06
6.533442e-06
5.910704e-06
2.730639e-06
2.502187e-06
2.417243e-06
2.486067e-06
2.583793e-06
2.707342e-06
2.834363e-06
2.934124e-06
2.998734e-06
3.088965e-06
3.253001e-06
3.60253e-06
4.237204e-06
4.918877e-06
5.322546e-06
5.244745e-06
4.726138e-06
4.035004e-06
3.502174e-06
3.221586e-06
3.105464e-06
3.018332e-06
2.918497e-06
2.818009e-06
2.74005e-06
2.652895e-06
2.538246e-06
2.407285e-06
2.279573e-06
2.177357e-06
2.119516e-06
2.116657e-06
2.16437e-06
2.240367e-06
2.3014e-06
2.333602e-06
2.428008e-06
3.091767e-06
6.876726e-06
6.391672e-06
2.901941e-06
2.359487e-06
2.334058e-06
2.378829e-06
2.441193e-06
2.547889e-06
2.685761e-06
2.813703e-06
2.910844e-06
2.989775e-06
3.135318e-06
3.42861e-06
3.98023e-06
4.629015e-06
5.066623e-06
5.062099e-06
4.631042e-06
3.953232e-06
3.40747e-06
3.09481e-06
2.97624e-06
2.935628e-06
2.893907e-06
2.819334e-06
2.728892e-06
2.664912e-06
2.581109e-06
2.469213e-06
2.350523e-06
2.252204e-06
2.198771e-06
2.209808e-06
2.28386e-06
2.370835e-06
2.442244e-06
2.470127e-06
2.536021e-06
3.16435e-06
7.128061e-06
6.71281e-06
2.912352e-06
2.261221e-06
2.234889e-06
2.255861e-06
2.282383e-06
2.359877e-06
2.490226e-06
2.627363e-06
2.743277e-06
2.834099e-06
2.966937e-06
3.227345e-06
3.717714e-06
4.305557e-06
4.763102e-06
4.833066e-06
4.466156e-06
3.837391e-06
3.306502e-06
2.978132e-06
2.846275e-06
2.838186e-06
2.868789e-06
2.874114e-06
2.775238e-06
2.664767e-06
2.601424e-06
2.522914e-06
2.429501e-06
2.346425e-06
2.30634e-06
2.369568e-06
2.491144e-06
2.580519e-06
2.584692e-06
2.598131e-06
2.653868e-06
3.325921e-06
7.371674e-06
6.72982e-06
2.852519e-06
2.15491e-06
2.10662e-06
2.116277e-06
2.121403e-06
2.175567e-06
2.293116e-06
2.427188e-06
2.545877e-06
2.647635e-06
2.767466e-06
3.018449e-06
3.47607e-06
4.001426e-06
4.473365e-06
4.610078e-06
4.278334e-06
3.727451e-06
3.216467e-06
2.863425e-06
2.695479e-06
2.680477e-06
2.762425e-06
2.862788e-06
2.900484e-06
2.76618e-06
2.620449e-06
2.5575e-06
2.497972e-06
2.442617e-06
2.447498e-06
2.560669e-06
2.705849e-06
2.811583e-06
2.786714e-06
2.710756e-06
2.759022e-06
3.521781e-06
7.697426e-06
6.385757e-06
2.73729e-06
2.066441e-06
1.982231e-06
1.989534e-06
1.988225e-06
2.028023e-06
2.134276e-06
2.265283e-06
2.38294e-06
2.487097e-06
2.609072e-06
2.860825e-06
3.307586e-06
3.778188e-06
4.228692e-06
4.382849e-06
4.101858e-06
3.636316e-06
3.157821e-06
2.7795e-06
2.554108e-06
2.486682e-06
2.556742e-06
2.722549e-06
2.897297e-06
2.972518e-06
2.801613e-06
2.629699e-06
2.553437e-06
2.535595e-06
2.620253e-06
2.757134e-06
2.90956e-06
3.012023e-06
2.943449e-06
2.763273e-06
2.791292e-06
3.57167e-06
7.816165e-06
5.999044e-06
2.655773e-06
2.027159e-06
1.910297e-06
1.922471e-06
1.927589e-06
1.959955e-06
2.055135e-06
2.182969e-06
2.299121e-06
2.400867e-06
2.535707e-06
2.791263e-06
3.227739e-06
3.636148e-06
4.028249e-06
4.16566e-06
3.96871e-06
3.558148e-06
3.12893e-06
2.753977e-06
2.476115e-06
2.331891e-06
2.335027e-06
2.485062e-06
2.742914e-06
2.982774e-06
3.102297e-06
2.946908e-06
2.764291e-06
2.71716e-06
2.810531e-06
2.946283e-06
3.063938e-06
3.090971e-06
2.912409e-06
2.751894e-06
2.785764e-06
3.548288e-06
7.523724e-06
5.907016e-06
2.676975e-06
2.060281e-06
1.923916e-06
1.931176e-06
1.940501e-06
1.967216e-06
2.048277e-06
2.165657e-06
2.273639e-06
2.385102e-06
2.525304e-06
2.78184e-06
3.193834e-06
3.541684e-06
3.871833e-06
3.989168e-06
3.851759e-06
3.512995e-06
3.11414e-06
2.772673e-06
2.478821e-06
2.267294e-06
2.182817e-06
2.260156e-06
2.496899e-06
2.857634e-06
3.232191e-06
3.43605e-06
3.309304e-06
3.132176e-06
3.085499e-06
3.135175e-06
3.143488e-06
3.03016e-06
2.773887e-06
2.711823e-06
2.786185e-06
3.622861e-06
7.365341e-06
6.149003e-06
2.767673e-06
2.144306e-06
2.01451e-06
1.998904e-06
1.998328e-06
2.01897e-06
2.087263e-06
2.189482e-06
2.309616e-06
2.411259e-06
2.529535e-06
2.772495e-06
3.150867e-06
3.457473e-06
3.736192e-06
3.858995e-06
3.765192e-06
3.520832e-06
3.129186e-06
2.805522e-06
2.532704e-06
2.2894e-06
2.120497e-06
2.095446e-06
2.250634e-06
2.586861e-06
3.113792e-06
3.719211e-06
3.859698e-06
3.672259e-06
3.480657e-06
3.323886e-06
3.148341e-06
2.88775e-06
2.635569e-06
2.64309e-06
2.804398e-06
3.811618e-06
7.470844e-06
6.531258e-06
2.852689e-06
2.257758e-06
2.163644e-06
2.100045e-06
2.073327e-06
2.081576e-06
2.140123e-06
2.269936e-06
2.401269e-06
2.454278e-06
2.52802e-06
2.736438e-06
3.061959e-06
3.334854e-06
3.565468e-06
3.732482e-06
3.706425e-06
3.538163e-06
3.228834e-06
2.852387e-06
2.59991e-06
2.361483e-06
2.141983e-06
2.010262e-06
2.039544e-06
2.263064e-06
2.695223e-06
3.357796e-06
3.781267e-06
3.822013e-06
3.67762e-06
3.437847e-06
3.13183e-06
2.773769e-06
2.481286e-06
2.5543e-06
2.860278e-06
4.027113e-06
7.158035e-06
6.974859e-06
2.96077e-06
2.448324e-06
2.352182e-06
2.21664e-06
2.152852e-06
2.147813e-06
2.23216e-06
2.408871e-06
2.475899e-06
2.46844e-06
2.497138e-06
2.664728e-06
2.929265e-06
3.162002e-06
3.342912e-06
3.529318e-06
3.623039e-06
3.550055e-06
3.345387e-06
3.004e-06
2.680957e-06
2.450093e-06
2.218837e-06
2.020729e-06
1.928337e-06
2.00058e-06
2.265727e-06
2.707053e-06
3.232986e-06
3.57153e-06
3.581331e-06
3.405173e-06
3.142896e-06
2.771992e-06
2.365884e-06
2.437704e-06
2.874929e-06
4.041227e-06
6.552246e-06
7.445646e-06
3.288261e-06
2.778166e-06
2.588124e-06
2.371819e-06
2.261495e-06
2.300531e-06
2.435095e-06
2.540281e-06
2.508894e-06
2.447106e-06
2.455871e-06
2.600941e-06
2.807274e-06
2.968087e-06
3.083424e-06
3.219228e-06
3.406706e-06
3.504782e-06
3.424932e-06
3.189487e-06
2.83925e-06
2.5506e-06
2.323614e-06
2.103868e-06
1.937849e-06
1.884206e-06
1.977956e-06
2.2293e-06
2.613012e-06
3.045436e-06
3.320496e-06
3.296226e-06
3.114068e-06
2.84755e-06
2.420603e-06
2.283846e-06
2.718186e-06
3.99974e-06
8.361171e-06
7.902673e-06
3.776851e-06
3.217338e-06
2.905421e-06
2.651302e-06
2.573823e-06
2.656887e-06
2.753277e-06
2.789655e-06
2.659199e-06
2.527954e-06
2.514806e-06
2.609909e-06
2.712712e-06
2.775894e-06
2.816299e-06
2.886708e-06