/*--------------------------------*- C++ -*----------------------------------*\
| =========                 |                                                 |
| \\      /  F ield         | OpenFOAM: The Open Source CFD Toolbox           |
|  \\    /   O peration     | Version:  2212                                  |
|   \\  /    A nd           | Website:  www.openfoam.com                      |
|    \\/     M anipulation  |                                                 |
\*---------------------------------------------------------------------------*/
FoamFile
{
    version     2.0;
    format      ascii;
    arch        "LSB;label=32;scalar=64";
    class       volScalarField;
    location    "3000";
    object      k;
}
// * * * * * * * * * * * * * * * * * * * * * * * * * * * * * * * * * * * * * //

dimensions      [0 2 -2 0 0 0 0];

internalField   nonuniform List<scalar> 
96000
(
0.0005542966
0.000454758
0.0004418831
0.0004548591
0.0004753968
0.0004982545
0.0005198741
0.0005417991
0.0005663114
0.0005911801
0.0006115381
0.0006256059
0.0006350263
0.0006403093
0.0006286542
0.0005894989
0.0005354193
0.000495064
0.000490038
0.0005175488
0.0005621441
0.0006081498
0.0006477503
0.0006772908
0.0006922194
0.0006889546
0.000669787
0.0006420015
0.000614337
0.0005855554
0.0005502785
0.0005126498
0.0004766849
0.0004432693
0.0004134846
0.0003899505
0.000373192
0.000360054
0.0003707798
0.0003631416
0.0004453086
0.0004090968
0.0004249253
0.0004492166
0.0004766562
0.0005038535
0.0005291492
0.0005556574
0.0005847437
0.0006157296
0.0006443535
0.0006680644
0.0006872333
0.0007004071
0.0006990893
0.0006687146
0.0006108604
0.000558443
0.0005487776
0.0005847359
0.00064097
0.000695077
0.0007303283
0.0007427004
0.0007269471
0.0006878846
0.0006383326
0.0005925396
0.0005586479
0.0005291636
0.0004978427
0.0004672881
0.0004399578
0.0004160845
0.0003962516
0.000381949
0.0003747904
0.0003736944
0.0003895291
0.000370933
0.0004022506
0.0003747583
0.0003953368
0.0004268195
0.0004656149
0.0005018224
0.00053497
0.0005674569
0.0005989073
0.0006287819
0.0006550105
0.0006764792
0.0006930895
0.0007042677
0.0007048199
0.0006835219
0.0006321553
0.0005719332
0.0005402504
0.0005600497
0.0006080045
0.0006596804
0.0006941302
0.0007014375
0.0006819972
0.0006456631
0.0006017352
0.0005573873
0.0005182137
0.0004853696
0.0004552423
0.0004275225
0.0004032677
0.000382613
0.0003659144
0.0003534003
0.0003463911
0.0003474706
0.0003677652
0.0003516038
0.0003632034
0.0003489369
0.0003709693
0.0004118454
0.0004580038
0.0004988907
0.0005373672
0.0005741277
0.0006080234
0.0006381022
0.0006638933
0.0006848546
0.0006997968
0.0007091681
0.0007112352
0.0006982519
0.0006581171
0.0005946614
0.0005385035
0.0005272269
0.0005586449
0.0006055204
0.0006438289
0.0006616683
0.0006566564
0.0006345425
0.0006025414
0.0005657371
0.0005285774
0.0004936387
0.0004610076
0.0004307735
0.0004040177
0.0003812915
0.0003627444
0.0003482328
0.0003397423
0.000340571
0.000360409
0.000353047
0.0003619375
0.0003394798
0.0003569152
0.0004070256
0.000451283
0.0004922399
0.0005323015
0.0005712859
0.0006072957
0.0006399854
0.0006687175
0.0006931266
0.0007086657
0.0007153167
0.0007159146
0.000705822
0.0006768715
0.000617556
0.0005466126
0.0005040824
0.0005119706
0.0005486343
0.0005885489
0.0006145881
0.0006215171
0.0006130328
0.0005949072
0.0005692961
0.0005387993
0.0005065444
0.0004746814
0.0004445472
0.0004175583
0.000394256
0.0003743499
0.0003571059
0.0003449028
0.0003442091
0.0003649245
0.0003659212
0.0003724965
0.0003516628
0.0003734382
0.0004073163
0.0004405791
0.0004739257
0.0005117863
0.0005527766
0.0005928672
0.0006306452
0.0006643077
0.0006919958
0.0007076529
0.0007090119
0.0007057659
0.0006963646
0.0006788266
0.0006313019
0.0005590586
0.0004964288
0.0004782306
0.0004989111
0.0005364923
0.0005697597
0.0005883369
0.0005922284
0.0005853236
0.0005689499
0.0005449803
0.0005166077
0.0004868836
0.0004581232
0.0004319845
0.0004087198
0.0003875171
0.0003672193
0.000350216
0.0003467087
0.0003685282
0.0003782588
0.0003924203
0.0003767693
0.0003888714
0.0004063593
0.0004257443
0.0004476559
0.0004791692
0.0005195071
0.0005627912
0.0006054029
0.0006440014
0.0006742586
0.0006886774
0.0006847964
0.0006779217
0.0006700689
0.0006651227
0.0006347273
0.0005715122
0.0005013891
0.0004611886
0.0004623918
0.0004922227
0.0005298875
0.0005592125
0.0005755855
0.0005785695
0.0005700789
0.0005523495
0.0005282263
0.0005009291
0.000473382
0.0004476164
0.000423697
0.000400233
0.0003759965
0.000353656
0.0003465333
0.0003687032
0.0003871872
0.0004056764
0.0003876913
0.0003901135
0.0003970344
0.0004062937
0.0004176553
0.0004402482
0.0004770978
0.0005208114
0.0005656966
0.0006066718
0.0006382041
0.000652441
0.0006466233
0.0006378531
0.0006328735
0.0006421226
0.0006318398
0.0005829555
0.0005139256
0.0004591775
0.0004384823
0.0004529494
0.0004886427
0.0005261456
0.0005558676
0.0005714885
0.0005715862
0.0005608948
0.0005420177
0.0005177553
0.0004912805
0.0004647909
0.0004390449
0.0004125915
0.0003832265
0.0003548226
0.0003435474
0.0003659571
0.0003923435
0.0003983224
0.0003825569
0.000378934
0.0003807611
0.0003839783
0.000387879
0.0004025082
0.0004345678
0.0004765901
0.0005213064
0.0005628049
0.0005953664
0.0006114827
0.0006071717
0.000596804
0.000594683
0.0006158498
0.0006246364
0.0005927219
0.0005307849
0.0004682075
0.0004263625
0.0004175154
0.0004401763
0.0004811056
0.0005234053
0.0005563606
0.0005705792
0.0005686648
0.0005559994
0.0005355291
0.0005100539
0.0004819341
0.0004533515
0.000423748
0.0003902125
0.000355622
0.0003393363
0.0003616582
0.0003954008
0.000372946
0.0003651736
0.0003626373
0.0003643979
0.0003662024
0.0003674999
0.0003776201
0.0004057819
0.0004456992
0.0004891992
0.0005300935
0.0005628016
0.0005806988
0.0005773087
0.000564447
0.0005624768
0.0005888826
0.0006122158
0.0005985085
0.0005489352
0.0004858996
0.0004294001
0.000394478
0.0003921038
0.0004217096
0.0004715776
0.0005237775
0.0005586445
0.0005720683
0.0005683038
0.0005522848
0.0005271556
0.0004973405
0.0004659663
0.0004341013
0.0003990759
0.0003635837
0.0003463406
0.0003636716
0.000395883
0.0003496661
0.0003527802
0.0003568887
0.0003616427
0.0003645296
0.0003660565
0.0003745911
0.0004001293
0.0004371795
0.0004777322
0.0005158505
0.0005465667
0.0005636293
0.0005591783
0.0005426784
0.0005370636
0.0005616458
0.0005927285
0.000596939
0.0005641179
0.0005083705
0.0004472742
0.000394687
0.0003628515
0.0003650669
0.0004071176
0.0004715397
0.0005275227
0.0005618732
0.0005729351
0.0005635919
0.0005403683
0.0005099527
0.0004774804
0.0004453604
0.0004119323
0.0003793403
0.0003598237
0.0003754249
0.0003963402
0.0003463811
0.0003575529
0.0003653921
0.0003719386
0.0003742847
0.0003744481
0.0003815145
0.0004048778
0.0004383893
0.0004745916
0.0005082258
0.0005357199
0.0005507525
0.0005454223
0.0005269408
0.0005171282
0.0005352746
0.0005682898
0.0005866179
0.0005726232
0.0005298315
0.0004733381
0.0004149399
0.0003644796
0.0003337861
0.0003438036
0.0004032315
0.0004787475
0.0005337373
0.0005614223
0.000563621
0.0005480907
0.0005200245
0.000488365
0.0004569321
0.000423855
0.0003889069
0.0003637241
0.0003787129
0.0003986985
0.0003630607
0.0003768386
0.0003830124
0.000387837
0.0003871832
0.0003841427
0.000389654
0.0004111352
0.000440724
0.0004705311
0.0004977398
0.0005210269
0.0005341416
0.0005296387
0.0005128438
0.0005009668
0.0005108117
0.0005406514
0.0005670253
0.0005708802
0.0005449035
0.0004989965
0.0004441398
0.0003885823
0.0003406087
0.0003119484
0.0003325625
0.000406987
0.0004811801
0.0005298197
0.0005486735
0.0005468244
0.0005271732
0.0004961337
0.0004639328
0.0004293
0.0003922496
0.0003663491
0.0003783401
0.0004012202
0.0003893423
0.0004017351
0.0004022004
0.0004026376
0.0003979123
0.0003916325
0.0003966098
0.0004159172
0.0004407412
0.0004620449
0.0004813727
0.0005002541
0.0005123196
0.0005103906
0.0004982787
0.000486812
0.000490026
0.0005123708
0.0005408491
0.0005574689
0.0005504564
0.0005184451
0.0004727784
0.0004200489
0.0003671921
0.0003229044
0.0002992419
0.0003268013
0.0003980477
0.0004672234
0.0005124621
0.0005317222
0.0005246979
0.0004968653
0.000464109
0.000430322
0.000395096
0.0003728577
0.0003823599
0.0003989801
0.0004155134
0.0004243227
0.0004169317
0.0004127332
0.0004037777
0.0003954343
0.0004018483
0.0004191911
0.000437486
0.0004486903
0.0004591363
0.0004743938
0.0004869495
0.0004894515
0.0004838243
0.0004749687
0.0004733202
0.0004859621
0.0005104055
0.0005339135
0.0005423111
0.000527991
0.000494752
0.0004505079
0.0004004088
0.0003516352
0.0003129036
0.0002967307
0.0003247562
0.0003870217
0.0004527083
0.0004953015
0.0005072796
0.0004903735
0.0004589621
0.0004296261
0.0004000976
0.0003827535
0.0003906532
0.0003902992
0.0004352211
0.0004413352
0.0004276137
0.0004181013
0.0004044972
0.0003961315
0.0004058697
0.000421845
0.0004337174
0.000434355
0.0004359786
0.0004483379
0.0004618886
0.0004690719
0.000470064
0.0004661749
0.0004615154
0.0004641478
0.0004798192
0.0005029526
0.000521018
0.0005230678
0.0005053998
0.0004730778
0.0004318854
0.0003865735
0.0003439249
0.000312738
0.0003028179
0.0003231584
0.0003695997
0.0004277375
0.0004661861
0.0004721361
0.0004530416
0.000430923
0.000410596
0.0003988839
0.0004077735
0.0004043969
0.0004501893
0.0004551726
0.0004382385
0.0004255111
0.0004122454
0.0004068636
0.0004162746
0.0004296328
0.0004360575
0.0004285643
0.0004215893
0.0004284467
0.0004398934
0.0004500237
0.0004567288
0.0004584541
0.0004556144
0.0004517815
0.0004547225
0.0004704445
0.0004901837
0.0005026168
0.0005004075
0.0004828015
0.0004537638
0.0004179246
0.0003791472
0.0003441868
0.0003190333
0.0003106919
0.0003214099
0.0003540615
0.0003986083
0.0004323285
0.0004391375
0.0004319849
0.0004225728
0.0004178103
0.0004327577
0.0004471992
0.0004639118
0.0004717362
0.0004572301
0.0004458536
0.0004369212
0.0004326075
0.0004383104
0.0004465371
0.0004480532
0.0004372843
0.0004230398
0.0004204147
0.0004269973
0.0004368351
0.0004455954
0.0004503958
0.0004506842
0.0004468931
0.0004413634
0.0004426875
0.0004565498
0.0004719555
0.0004798996
0.0004763583
0.0004617321
0.0004380926
0.0004089345
0.000378094
0.0003500183
0.0003290873
0.0003205296
0.0003244358
0.0003412378
0.0003733278
0.0004046011
0.0004224883
0.0004339116
0.0004396333
0.0004611634
0.0004895798
0.0004787552
0.0004932511
0.0004822401
0.0004714807
0.000465151
0.0004608642
0.0004634915
0.0004683959
0.0004674305
0.0004573573
0.0004428187
0.0004320994
0.0004294075
0.000433097
0.0004383236
0.0004416831
0.0004425301
0.0004410239
0.0004357293
0.000428005
0.0004276939
0.0004391772
0.000451233
0.0004574077
0.0004553282
0.0004449562
0.0004273502
0.0004054951
0.0003819042
0.0003592338
0.0003410181
0.0003311579
0.0003295952
0.0003342488
0.0003533889
0.0003859357
0.0004236979
0.000460806
0.0004940181
0.0005166533
0.0004910901
0.0005117932
0.0005044528
0.0004929434
0.0004887584
0.0004869235
0.0004894714
0.0004923325
0.0004909877
0.000483118
0.0004701359
0.0004535315
0.0004398408
0.0004347114
0.0004337201
0.0004327753
0.0004313471
0.0004303073
0.0004280129
0.0004213638
0.0004117963
0.0004112702
0.0004216675
0.0004333398
0.0004405368
0.0004411052
0.0004344945
0.0004222816
0.0004061534
0.0003871017
0.000367039
0.0003493723
0.0003374829
0.0003307152
0.00032757
0.0003421309
0.0003796804
0.0004329551
0.0004875065
0.0004834302
0.0005060551
0.0005329106
0.0005242413
0.0005084494
0.0005061434
0.0005052345
0.0005090469
0.0005124155
0.0005127657
0.0005058941
0.0004902637
0.0004683011
0.0004482165
0.0004366571
0.0004297684
0.0004234646
0.0004181424
0.0004156886
0.000414894
0.0004125323
0.0004051777
0.0003955224
0.000397405
0.0004089984
0.0004223002
0.0004309996
0.0004333189
0.0004290505
0.000419913
0.0004060625
0.0003881824
0.000368376
0.000349813
0.0003350917
0.0003239153
0.0003220369
0.0003389676
0.0003716957
0.0004119833
0.0004004189
0.000531259
0.0005594904
0.0005407488
0.0005212047
0.0005216562
0.0005218288
0.0005264188
0.0005311075
0.0005323008
0.0005239282
0.0005037552
0.000477163
0.0004535748
0.0004376445
0.0004257146
0.0004138999
0.0004039051
0.0003988368
0.0003980063
0.0003986454
0.0003969175
0.0003900379
0.0003831425
0.0003896926
0.0004032547
0.0004174177
0.0004264128
0.000428567
0.0004246974
0.0004154061
0.0004010152
0.0003827896
0.0003627823
0.0003421586
0.0003242579
0.0003175128
0.0003250647
0.0003443912
0.0003635172
0.000355281
0.0005694607
0.0005934624
0.0005632326
0.0005424623
0.0005450032
0.0005452711
0.0005485586
0.0005519429
0.0005504961
0.0005383181
0.0005143356
0.0004849646
0.0004596064
0.0004401597
0.000423242
0.0004054829
0.0003901126
0.000381669
0.000379841
0.0003818574
0.0003843133
0.0003838121
0.0003790294
0.0003772922
0.0003874717
0.0004025022
0.000416127
0.0004237331
0.0004243315
0.0004185591
0.0004074543
0.000392386
0.0003742864
0.0003530451
0.0003295449
0.0003135091
0.0003206973
0.0003499601
0.0003704258
0.0003593824
0.0006200704
0.0006404435
0.0005982964
0.0005758401
0.0005764814
0.0005734558
0.0005713207
0.0005687866
0.0005620519
0.0005465645
0.0005220804
0.000493863
0.0004690196
0.0004471085
0.0004252337
0.0004010224
0.0003794373
0.000366752
0.0003631251
0.0003654873
0.0003701605
0.0003740359
0.0003748949
0.0003725921
0.0003758826
0.000389525
0.000405729
0.0004184226
0.0004236169
0.0004207747
0.0004123465
0.0004007965
0.0003868317
0.0003694651
0.0003488937
0.0003307581
0.0003334451
0.0003551029
0.0003702448
0.0003630267
0.0006736286
0.0006925196
0.0006382705
0.0006105772
0.0006040674
0.0005939626
0.0005842628
0.0005748951
0.0005635094
0.0005472997
0.000526098
0.000503033
0.0004814348
0.0004592942
0.0004336492
0.0004035272
0.0003754726
0.0003577542
0.0003514392
0.0003530368
0.0003583787
0.0003642135
0.0003685756
0.0003700436
0.0003710543
0.0003806455
0.0003978139
0.0004147044
0.0004250462
0.000425903
0.0004202913
0.0004126462
0.0004043197
0.0003943177
0.0003820407
0.0003678256
0.0003564946
0.0003540612
0.0003644263
0.0003619473
0.0007222267
0.000740822
0.0006756732
0.0006388594
0.0006210574
0.0006022877
0.0005855802
0.0005714524
0.0005582715
0.0005441209
0.0005285047
0.0005122649
0.0004954396
0.0004750231
0.0004478172
0.0004139176
0.0003808646
0.0003584177
0.0003488443
0.0003484664
0.0003527633
0.0003585917
0.0003642005
0.0003687049
0.0003723205
0.0003786958
0.0003934942
0.0004121622
0.0004269378
0.0004330782
0.0004320702
0.0004290256
0.000426843
0.0004249078
0.0004199801
0.0004047369
0.0003796159
0.0003615159
0.0003656278
0.0003649199
0.0007595962
0.000778186
0.0007060927
0.0006591753
0.0006296317
0.0006026197
0.0005804605
0.0005639302
0.0005511087
0.0005401974
0.0005303536
0.0005206638
0.0005088379
0.0004910929
0.0004645313
0.0004298432
0.0003949743
0.0003702313
0.0003582772
0.0003552696
0.0003569127
0.0003607544
0.0003658156
0.0003713094
0.0003766413
0.0003822111
0.0003924562
0.0004090827
0.0004262814
0.0004377813
0.0004431847
0.0004468004
0.000452652
0.0004591199
0.0004592763
0.0004417244
0.0004060991
0.0003777695
0.0003737077
0.000370932
0.0007800445
0.0007972914
0.0007232882
0.000669284
0.0006304905
0.0005970781
0.0005711316
0.000553593
0.000542179
0.0005348198
0.0005303161
0.0005263195
0.0005188651
0.0005039747
0.0004793988
0.0004468104
0.0004140461
0.0003905549
0.0003784168
0.0003736939
0.0003724498
0.0003730011
0.0003751968
0.0003784033
0.0003818456
0.0003854151
0.0003912356
0.000402622
0.0004188178
0.0004349453
0.0004479781
0.0004618875
0.0004799831
0.0004955746
0.0004987641
0.0004760247
0.0004304145
0.0003954167
0.000384903
0.0003804313
0.000780106
0.0007937098
0.0007227007
0.0006663005
0.0006221651
0.0005848318
0.0005567169
0.0005392181
0.000530084
0.0005265506
0.0005267866
0.0005273857
0.0005235443
0.0005113668
0.0004896081
0.0004611461
0.0004336082
0.0004144
0.0004042521
0.0003996298
0.0003971331
0.0003949972
0.00039261
0.000389767
0.0003867222
0.0003840661
0.000383968
0.0003900987
0.000404254
0.0004231954
0.0004446361
0.0004717083
0.000503621
0.0005287912
0.0005332299
0.0005009057
0.0004499997
0.0004106705
0.0003979628
0.0003939392
0.0007601804
0.0007681958
0.0007031477
0.0006486083
0.0006031646
0.0005646182
0.0005361557
0.000519917
0.0005137509
0.0005140188
0.0005182746
0.0005225875
0.0005219808
0.0005126017
0.0004942706
0.0004711913
0.0004504376
0.0004369356
0.0004301032
0.000426905
0.000424465
0.0004206809
0.0004138797
0.0004036831
0.0003917187
0.0003806456
0.0003744144
0.0003769381
0.0003889195
0.0004076107
0.000434049
0.0004718508
0.0005164198
0.0005516125
0.0005562716
0.0005166464
0.0004649638
0.0004231955
0.0004097314
0.0004059806
0.0007233062
0.000725048
0.0006667375
0.0006166675
0.000573121
0.0005359123
0.0005090872
0.0004953449
0.0004925509
0.0004963781
0.0005039653
0.0005113781
0.000513743
0.0005073974
0.0004931646
0.0004761313
0.0004625457
0.000455103
0.0004522543
0.000451226
0.0004492254
0.0004440417
0.0004333289
0.0004165383
0.0003960669
0.0003769802
0.0003657675
0.0003665679
0.0003766975
0.0003920703
0.0004176868
0.0004638304
0.0005169849
0.0005586782
0.0005640534
0.0005254881
0.0004746417
0.0004318855
0.0004174161
0.0004143982
0.000673341
0.0006694563
0.000617578
0.0005729969
0.0005332532
0.0004994378
0.0004760658
0.0004659364
0.0004667135
0.0004737484
0.0004840852
0.0004941776
0.0004993969
0.0004966276
0.0004873538
0.0004769786
0.0004705916
0.0004691603
0.0004704965
0.0004717315
0.0004699699
0.0004627079
0.0004478511
0.000425629
0.0003985311
0.0003735717
0.0003587171
0.0003569273
0.0003637149
0.0003758473
0.000400013
0.0004507289
0.000506163
0.0005505569
0.0005595097
0.0005270116
0.0004785865
0.0004369302
0.0004221328
0.0004211122
0.000614317
0.0006060426
0.0005603993
0.0005215092
0.0004864095
0.0004573194
0.0004387121
0.0004330267
0.0004374549
0.0004474064
0.0004602023
0.0004729711
0.0004813958
0.000483032
0.0004797647
0.0004768027
0.000477599
0.0004817385
0.0004866831
0.0004892499
0.0004861779
0.0004747112
0.0004543848
0.0004260176
0.0003939926
0.0003649882
0.0003465364
0.0003418762
0.0003455647
0.0003557616
0.0003815159
0.0004340651
0.0004867109
0.0005292067
0.0005418544
0.0005174936
0.0004746902
0.0004377157
0.000424504
0.0004249722
0.0005509084
0.0005399546
0.0005002349
0.0004667101
0.0004364224
0.0004126726
0.0003994819
0.0003986688
0.0004067578
0.0004195978
0.0004351102
0.000451105
0.0004635065
0.0004704459
0.0004743348
0.0004795402
0.0004875629
0.0004966869
0.000503785
0.0005050471
0.0004966695
0.000476703
0.0004480433
0.0004148026
0.0003814484
0.0003519038
0.0003324455
0.0003273035
0.0003305743
0.00033831
0.0003649719
0.0004166139
0.0004606646
0.0004955049
0.0005082745
0.0004921955
0.0004592748
0.0004306441
0.0004177909
0.000414321
0.0004884704
0.0004770891
0.0004425391
0.0004131603
0.0003872989
0.00036879
0.0003612152
0.0003654107
0.0003772436
0.000393316
0.000412288
0.0004323497
0.0004496637
0.0004629598
0.0004754836
0.0004901389
0.0005062732
0.0005204129
0.0005282563
0.000525042
0.0005078511
0.0004790662
0.000445908
0.000413401
0.0003831449
0.0003567924
0.0003386842
0.0003318922
0.0003302446
0.0003323238
0.0003605858
0.0004029491
0.0004332689
0.0004551006
0.0004627539
0.0004521451
0.0004307226
0.0004119149
0.0003974143
0.0003876708
0.0004341704
0.0004245867
0.0003940064
0.0003668041
0.0003436507
0.0003291558
0.0003266193
0.0003357156
0.000351486
0.0003713427
0.0003944028
0.0004190262
0.0004425052
0.0004648011
0.0004891537
0.0005159207
0.0005414475
0.0005608405
0.0005689289
0.0005612917
0.0005377727
0.0005042229
0.0004693619
0.0004377134
0.0004097238
0.0003856671
0.0003673992
0.0003560281
0.0003470126
0.0003414433
0.0003642059
0.0003971138
0.0004124849
0.0004193851
0.000417813
0.0004080228
0.0003955385
0.0003874348
0.0003767853
0.0003647488
0.0003953261
0.0003904678
0.0003627164
0.0003373054
0.000315042
0.0003008272
0.0003008732
0.0003142189
0.000333338
0.0003565394
0.0003833501
0.0004131236
0.0004447031
0.0004786089
0.0005159207
0.0005546085
0.0005893704
0.0006138896
0.0006208931
0.0006078082
0.0005793389
0.0005436346
0.0005082903
0.0004770132
0.0004503325
0.0004280389
0.0004104108
0.0003971395
0.0003843626
0.0003756681
0.0003711126
0.0003901628
0.0003981962
0.0003984647
0.0003931739
0.0003844369
0.0003770119
0.0003772712
0.000373178
0.0003602921
0.0003761305
0.0003811196
0.0003600147
0.0003389736
0.0003188685
0.0003005251
0.0002920464
0.0003056527
0.0003259023
0.0003515649
0.0003820447
0.0004165675
0.0004540871
0.0004959323
0.0005424289
0.0005909387
0.0006347857
0.000663326
0.000668257
0.0006509377
0.0006209949
0.0005872875
0.0005548381
0.0005258931
0.0005006458
0.0004782367
0.000457541
0.0004416911
0.0004332143
0.0004228061
0.0003975876
0.0003862114
0.0003828406
0.0003825117
0.0003805176
0.0003772604
0.0003781941
0.0003873465
0.0003937364
0.0003822482
0.0003812358
0.0003925381
0.0003775436
0.0003569957
0.0003422699
0.0003284437
0.0003168153
0.0003274489
0.0003468478
0.0003731898
0.000404146
0.000438219
0.0004764405
0.0005217843
0.0005728639
0.0006242641
0.0006675039
0.0006921738
0.000691604
0.0006698853
0.0006390021
0.0006074465
0.0005790032
0.0005537895
0.0005301017
0.0005055337
0.0004797602
0.0004614231
0.0004605758
0.0004596087
0.0004318535
0.0004155701
0.0004125594
0.0004117886
0.0004062487
0.0003981924
0.0003971484
0.0004061437
0.0004138738
0.0003909942
0.0003751121
0.0003906225
0.000389275
0.0003680955
0.000357229
0.0003464798
0.0003379109
0.0003522306
0.0003764385
0.0004061375
0.0004388119
0.0004736169
0.0005121029
0.0005549604
0.0005978401
0.00063426
0.0006574254
0.0006611317
0.0006440787
0.0006141092
0.0005821313
0.0005544734
0.0005318368
0.000511969
0.0004917189
0.0004681173
0.0004429765
0.0004287799
0.0004374043
0.0004497537
0.0004461064
0.0004392804
0.0004350318
0.0004291765
0.0004190132
0.0004070372
0.0003985728
0.0003957864
0.0003873403
0.0003430285
0.0006002743
0.0004508422
0.0004209982
0.0004408958
0.0004648691
0.0004849681
0.0004982404
0.0005125916
0.0005322272
0.0005538818
0.0005721451
0.0005897241
0.0006096735
0.0006233409
0.0006121996
0.0005707665
0.0005230966
0.0004912669
0.0004773941
0.0004872945
0.000521696
0.0005644525
0.0006044759
0.0006348572
0.0006503639
0.000649007
0.0006309483
0.0006028009
0.0005792232
0.0005577914
0.0005264947
0.000496048
0.0004712325
0.0004484544
0.0004280629
0.0004136462
0.000400637
0.000380432
0.0003931307
0.0004232598
0.0004242229
0.0003591176
0.000360891
0.0003786465
0.0003923908
0.0003975696
0.0003964121
0.0003961817
0.0003994513
0.000406482
0.0004162207
0.0004301251
0.0004487407
0.0004652709
0.0004685389
0.0004472483
0.0004134543
0.000387877
0.0003760261
0.0003725897
0.0003699814
0.0003713666
0.0003733861
0.0003685345
0.0003631989
0.000367843
0.000380556
0.0003905568
0.0003924937
0.0003888824
0.0003879266
0.0003933402
0.0004028246
0.0004139492
0.0004230062
0.0004261624
0.0004216334
0.0004079193
0.0004211333
0.0003868646
0.0004331142
0.0003436131
0.000363786
0.0003890105
0.0004026185
0.0004059636
0.0004051643
0.0004027782
0.0004008954
0.0004006311
0.0004026142
0.0004088841
0.0004216698
0.0004382921
0.0004507205
0.0004470666
0.0004249303
0.0003981438
0.0003817847
0.000379432
0.0003790881
0.000376529
0.0003735411
0.0003725473
0.0003755312
0.0003826138
0.0003925216
0.0004007681
0.0004010035
0.0003948331
0.0003894002
0.0003901872
0.0003959935
0.0004041115
0.0004098618
0.0004072051
0.0003964203
0.0003842452
0.0004056409
0.0003720966
0.0004077468
0.0003568896
0.0003865349
0.000415277
0.0004302685
0.0004375571
0.0004413001
0.0004405096
0.000435292
0.0004276617
0.000418747
0.000412524
0.0004148134
0.000427541
0.0004434683
0.0004498212
0.0004377797
0.0004112062
0.0003880985
0.0003812002
0.0003859497
0.0003919195
0.0003964439
0.0004006076
0.0004046227
0.0004080087
0.0004102907
0.0004110513
0.0004084265
0.0004025478
0.0003983833
0.0003997038
0.0004059598
0.0004146253
0.0004212464
0.0004197382
0.0004097303
0.0003980088
0.0004137339
0.0003854756
0.0003920185
0.0003653896
0.0004005075
0.0004311828
0.0004477778
0.0004592201
0.000469466
0.0004748198
0.0004720835
0.0004612918
0.0004449906
0.0004271082
0.0004167432
0.0004226496
0.0004383481
0.00044985
0.0004450621
0.0004213457
0.000393209
0.0003784861
0.0003819329
0.0003931773
0.0004055727
0.0004165843
0.0004241152
0.0004270662
0.0004257047
0.0004210594
0.0004145997
0.0004081418
0.0004046389
0.0004063752
0.0004134394
0.000423923
0.0004336848
0.0004358477
0.000427022
0.0004130471
0.0004236629
0.0004048608
0.0003786259
0.0003720224
0.0004107986
0.0004373596
0.0004524116
0.0004645178
0.0004779399
0.0004887479
0.0004911736
0.0004825652
0.0004642063
0.0004405701
0.0004201395
0.0004183905
0.0004318376
0.0004458954
0.000446418
0.0004273159
0.0003975169
0.0003763248
0.0003734334
0.0003830493
0.0003992352
0.0004162739
0.0004294421
0.0004364025
0.0004371177
0.000432635
0.0004253599
0.0004182593
0.0004142316
0.0004154607
0.0004226153
0.0004342373
0.0004463594
0.0004511344
0.0004418392
0.0004229048
0.0004259633
0.0004190013
0.000399465
0.000374869
0.000410782
0.000435445
0.0004485027
0.0004571283
0.0004685629
0.0004808727
0.0004870604
0.0004826869
0.0004668709
0.0004435093
0.0004202206
0.0004135034
0.0004246787
0.0004399609
0.0004451461
0.0004309743
0.0004019235
0.0003762965
0.0003655773
0.0003681283
0.0003820608
0.000401763
0.000420084
0.0004321506
0.000437559
0.0004371184
0.0004326028
0.0004270774
0.0004237064
0.000425079
0.0004325048
0.0004447981
0.0004581944
0.0004643313
0.0004532937
0.0004289857
0.0004251366
0.000429119
0.0004120946
0.0003739832
0.0004013933
0.0004255983
0.0004369988
0.0004412554
0.0004480316
0.0004582792
0.0004653102
0.0004642398
0.000453342
0.0004345316
0.0004147071
0.0004075494
0.0004176258
0.0004340368
0.000443713
0.0004342514
0.0004078399
0.000379437
0.0003614121
0.0003547029
0.0003607038
0.0003779017
0.00039889
0.0004154802
0.0004255229
0.0004306088
0.0004316018
0.0004303219
0.0004295962
0.0004322192
0.0004400879
0.0004520155
0.0004647708
0.0004724702
0.0004599771
0.0004330426
0.0004240247
0.0004387659
0.0004126806
0.000364831
0.00038384
0.0004080114
0.0004193764
0.0004214757
0.0004246472
0.0004320736
0.0004383984
0.0004392799
0.0004331977
0.0004205548
0.0004066197
0.0004017398
0.0004113879
0.0004285862
0.000442254
0.0004382112
0.0004163936
0.0003871619
0.0003630622
0.0003476144
0.0003425302
0.0003510926
0.0003694059
0.0003895183
0.0004039384
0.0004136005
0.0004211101
0.0004261878
0.0004301548
0.0004356437
0.0004447699
0.0004565527
0.0004676646
0.0004740644
0.000463694
0.000436024
0.000425734
0.000451447
0.0003984837
0.0003487267
0.0003626983
0.0003887448
0.0004032433
0.0004075476
0.0004103986
0.000416189
0.0004214048
0.0004224632
0.0004186782
0.0004102972
0.0004007262
0.0003979859
0.0004064306
0.0004224144
0.000438313
0.0004409972
0.000426223
0.0003994624
0.0003720014
0.0003499827
0.0003345763
0.000330068
0.0003393981
0.0003571979
0.0003767205
0.0003906472
0.0004021553
0.0004134387
0.0004235824
0.0004340312
0.0004453304
0.0004571031
0.0004670872
0.0004724128
0.0004633677
0.0004345691
0.0004289419
0.0004554838
0.0003823655
0.0003362692
0.0003467103
0.0003742887
0.000393836
0.0004031976
0.0004083904
0.0004139643
0.0004182499
0.0004183494
0.0004144506
0.000407514
0.0003995262
0.0003970005
0.0004021868
0.0004144678
0.0004301118
0.0004395726
0.0004337417
0.000413423
0.000387227
0.0003618286
0.000339795
0.0003234625
0.0003185039
0.0003282338
0.0003461154
0.000366358
0.0003817053
0.0003955375
0.0004107021
0.0004259955
0.0004400656
0.0004526336
0.0004628659
0.000469724
0.0004594863
0.0004312862
0.0004301085
0.0004442691
0.0003789932
0.0003344766
0.000340646
0.0003668546
0.0003895132
0.0004027916
0.0004107746
0.0004169047
0.0004208458
0.000420235
0.000416047
0.0004095107
0.0004015532
0.0003978758
0.0003988234
0.0004061504
0.0004185534
0.0004313204
0.0004346119
0.0004238999
0.0004040364
0.0003796821
0.0003546019
0.0003316363
0.0003136102
0.000307864
0.0003196133
0.0003414082
0.0003650283
0.0003815232
0.0003963082
0.000412654
0.000428597
0.0004420969
0.0004532537
0.0004616897
0.0004527385
0.0004288372
0.0004319519
0.0004382206
0.0003900223
0.0003396246
0.0003433698
0.0003666116
0.0003884995
0.0004025645
0.0004123811
0.0004193396
0.0004232278
0.000422409
0.0004180726
0.0004118895
0.0004039886
0.0003994035
0.0003972183
0.000399952
0.0004074097
0.0004184904
0.0004273733
0.0004260248
0.0004155063
0.0003974059
0.0003731312
0.000347402
0.000323719
0.0003042266
0.0002994828
0.0003163604
0.0003479201
0.0003697868
0.0003831833
0.0003972452
0.0004122733
0.0004253706
0.0004366283
0.0004461906
0.0004423881
0.0004267068
0.000439469
0.0004414855
0.0004060687
0.000346017
0.0003520994
0.0003729711
0.0003899892
0.0004020589
0.0004118442
0.0004193262
0.0004235441
0.0004227515
0.0004184057
0.0004126363
0.0004053725
0.0004007121
0.0003972861
0.0003967228
0.0003999888
0.0004063201
0.000414706
0.0004194024
0.0004169734
0.0004077287
0.0003893608
0.0003637009
0.0003374014
0.000313753
0.000295277
0.0002947537
0.0003180859
0.00034618
0.0003639685
0.0003776956
0.0003913626
0.0004046162
0.0004155677
0.0004258354
0.0004284377
0.0004242506
0.0004449518
0.0004293643
0.0004236181
0.0003529046
0.0003636004
0.0003817899
0.0003927738
0.0004020054
0.0004104782
0.0004179655
0.0004221548
0.0004202831
0.000415849
0.0004111125
0.0004052766
0.0004014761
0.0003983244
0.0003959634
0.0003960842
0.000398053
0.0004021728
0.0004078324
0.0004099303
0.0004069214
0.0003971059
0.0003770598
0.0003509679
0.0003262217
0.0003060478
0.0002921512
0.0002939979
0.0003139744
0.0003383805
0.000353875
0.0003669525
0.000381239
0.0003930188
0.0004023007
0.0004101514
0.0004162855
0.0004313712
0.0004059123
0.0004420725
0.0003631389
0.0003743851
0.000387971
0.0003950659
0.0004027666
0.0004105864
0.0004167876
0.0004181417
0.0004146648
0.000410641
0.0004078182
0.0004044254
0.0004020471
0.0003995413
0.0003965322
0.0003939504
0.0003927461
0.0003934075
0.0003962724
0.00039952
0.000399046
0.000394344
0.0003828971
0.0003630743
0.0003399184
0.000320308
0.0003065363
0.0002971671
0.0002969037
0.0003098473
0.0003278334
0.0003418492
0.0003557974
0.0003701703
0.0003799044
0.000388025
0.0003991324
0.0004185207
0.0004760616
0.0004600705
0.0003737816
0.0003804452
0.0003893676
0.0003950966
0.0004017814
0.0004083353
0.0004127474
0.000412698
0.0004094095
0.0004060429
0.0004049412
0.0004036222
0.0004023716
0.000400649
0.0003977282
0.0003936387
0.0003897045