/*--------------------------------*- C++ -*----------------------------------*\
| =========                 |                                                 |
| \\      /  F ield         | OpenFOAM: The Open Source CFD Toolbox           |
|  \\    /   O peration     | Version:  2212                                  |
|   \\  /    A nd           | Website:  www.openfoam.com                      |
|    \\/     M anipulation  |                                                 |
\*---------------------------------------------------------------------------*/
FoamFile
{
    version     2.0;
    format      ascii;
    arch        "LSB;label=32;scalar=64";
    class       volScalarField;
    location    "3000";
    object      nut;
}
// * * * * * * * * * * * * * * * * * * * * * * * * * * * * * * * * * * * * * //

dimensions      [0 2 -1 0 0 0 0];

internalField   nonuniform List<scalar> 
96000
(
0.002631331
0.002390046
0.002368042
0.002403379
0.002456723
0.002514387
0.002563689
0.002611126
0.002666127
0.002723748
0.002771137
0.002804336
0.002828267
0.002842777
0.002817902
0.002729391
0.00260171
0.002499875
0.002481341
0.002543629
0.002647055
0.002750794
0.002837075
0.00290103
0.002932567
0.002924807
0.002884022
0.002825404
0.002766007
0.002701625
0.002619194
0.002528282
0.002438623
0.002352156
0.002272395
0.002207273
0.002159565
0.002121649
0.0021538
0.002133471
0.002368363
0.002269933
0.002319502
0.002382651
0.002456825
0.002528448
0.002589915
0.00265058
0.002714831
0.002781968
0.002842915
0.00289476
0.002940323
0.00297439
0.002974494
0.002907088
0.002774087
0.002649398
0.002619027
0.002694492
0.002818839
0.002935083
0.003007468
0.003031414
0.002997684
0.002914719
0.002809487
0.002709909
0.002633836
0.00256482
0.002488364
0.002412004
0.002341718
0.002278653
0.002225343
0.002186633
0.002167624
0.002165352
0.002210722
0.002155058
0.002253252
0.002170582
0.002231331
0.002316899
0.002424925
0.002520244
0.002600944
0.002676963
0.002747481
0.002810303
0.002863168
0.002907741
0.002946943
0.00297767
0.002984272
0.002937591
0.002819981
0.002679607
0.002599919
0.002636823
0.002739385
0.002851915
0.002926292
0.002940525
0.002896948
0.002817452
0.002720292
0.002619092
0.002526809
0.002447687
0.002372754
0.002301456
0.002237243
0.002181575
0.00213631
0.002103077
0.002084674
0.002087825
0.002146708
0.002095868
0.002137557
0.002091508
0.002153005
0.002267997
0.0023989
0.002504805
0.002599058
0.002685389
0.002761761
0.002825718
0.002877291
0.002920207
0.002955573
0.002983109
0.002994834
0.002968959
0.002876527
0.002730257
0.002595856
0.002561923
0.002628366
0.002732264
0.002816836
0.002854653
0.002842185
0.002792486
0.00272037
0.002636136
0.002549205
0.002465423
0.002385289
0.002309131
0.002239999
0.002179711
0.00212936
0.002089246
0.002065317
0.002068211
0.002127904
0.002101847
0.002131773
0.002057982
0.002100328
0.002255629
0.002379037
0.002484736
0.002583002
0.002675284
0.002756689
0.002827105
0.002885017
0.002933012
0.002967969
0.002990358
0.003000831
0.002984589
0.002917432
0.00278138
0.00261482
0.002508487
0.002520761
0.002603625
0.002694411
0.002751643
0.0027648
0.002744034
0.002702655
0.0026454
0.002576105
0.002500764
0.002424459
0.002350269
0.002281956
0.002221148
0.002167553
0.002119425
0.002084346
0.002082741
0.002145758
0.002144667
0.002157241
0.00209405
0.002166582
0.002262408
0.00235156
0.002436554
0.002529972
0.002628315
0.002720203
0.002803409
0.002872742
0.002926599
0.002959127
0.002972179
0.002976806
0.002964596
0.002923307
0.002812822
0.0026443
0.002491364
0.002441137
0.002487027
0.002574111
0.002649135
0.00268884
0.002696378
0.002681808
0.002646939
0.002594011
0.002529171
0.002459376
0.002389957
0.002325007
0.002265231
0.002208671
0.002152141
0.002103169
0.002092901
0.002159481
0.002183776
0.002212684
0.002174072
0.002213801
0.002260388
0.002311018
0.00236669
0.002445935
0.002545232
0.002647066
0.002743369
0.002826139
0.002885569
0.002913148
0.002917089
0.002915251
0.002908557
0.002896766
0.002822643
0.002674154
0.002504387
0.002400366
0.002398123
0.002467472
0.002554061
0.002619489
0.002658272
0.002667906
0.002651112
0.00261323
0.002559518
0.002496887
0.002431851
0.002369138
0.002308525
0.002246365
0.002179116
0.002114831
0.002093519
0.002161935
0.002211243
0.002250137
0.002206021
0.002217422
0.00223374
0.002256448
0.00228456
0.002343006
0.002437196
0.002544115
0.002649416
0.00274111
0.002805741
0.002831424
0.002830761
0.002826176
0.002827846
0.002850362
0.002819492
0.002702458
0.002535884
0.002396527
0.00233843
0.002369701
0.002452913
0.002539104
0.002615694
0.002656243
0.002657899
0.002635811
0.00259491
0.002540507
0.00247905
0.002415073
0.002350492
0.002281115
0.002200358
0.002119039
0.002084997
0.002153381
0.00222539
0.002230513
0.002193215
0.002187197
0.002188093
0.002193304
0.0022008
0.002239653
0.002325264
0.002432834
0.002542236
0.002638924
0.002709676
0.002739664
0.002740727
0.002732412
0.002741564
0.002794374
0.002807517
0.002727776
0.002578254
0.002420577
0.002308314
0.002279323
0.00233186
0.002430645
0.002539558
0.002626129
0.002661212
0.002657893
0.002631036
0.002586014
0.002527437
0.002459168
0.002387714
0.00231108
0.002219657
0.002122374
0.002073171
0.002138595
0.002231649
0.002160423
0.002145481
0.002142222
0.002142169
0.00214236
0.002141818
0.002168954
0.002246586
0.00235232
0.002462019
0.002560104
0.00263407
0.002670281
0.002670945
0.002655281
0.002664877
0.002733652
0.002783995
0.002744848
0.002624145
0.00246683
0.002318288
0.002219948
0.002207873
0.00228315
0.002413078
0.00255107
0.002638578
0.002670292
0.002663162
0.002628348
0.002570119
0.002497362
0.002418734
0.002337505
0.002244228
0.002145977
0.002093917
0.002142191
0.002227441
0.002094393
0.00211158
0.002127161
0.002134822
0.002137015
0.002136085
0.002158251
0.002229269
0.002328696
0.002432004
0.002524321
0.002594812
0.002631761
0.002627486
0.002600473
0.00260077
0.002669013
0.002741931
0.002745661
0.002663411
0.002525199
0.002367361
0.002223674
0.002130531
0.002132324
0.002248674
0.002421579
0.002567744
0.002650593
0.002676617
0.002655683
0.002601496
0.002526808
0.002445808
0.002366164
0.002280219
0.002190882
0.002133831
0.00217818
0.002227708
0.002087857
0.002127636
0.002153358
0.002164622
0.002164228
0.002158697
0.00217627
0.00224164
0.002332083
0.002424251
0.00250494
0.002568416
0.002601951
0.002593541
0.002558799
0.002547414
0.002602889
0.002685353
0.002725958
0.002687176
0.002580852
0.002437072
0.002281046
0.002138333
0.002046197
0.002074931
0.002243747
0.002448861
0.002585583
0.002651065
0.002655695
0.0026187
0.00254954
0.002471741
0.002396385
0.002312599
0.002216221
0.00214465
0.00218734
0.00223922
0.002140189
0.002185144
0.002204375
0.002208663
0.002198907
0.002184367
0.002198325
0.002259391
0.002339913
0.002414911
0.002479104
0.002532321
0.002561767
0.002553805
0.002520236
0.002501496
0.002537782
0.002617431
0.002681345
0.002687053
0.002620538
0.002504666
0.002361085
0.002207891
0.002068038
0.001980621
0.002044084
0.002259889
0.002452687
0.00257202
0.002616656
0.002612916
0.002566072
0.002491153
0.002413679
0.00232508
0.0022241
0.002151406
0.002185192
0.002242528
0.002216069
0.002254261
0.002255926
0.002247189
0.002225928
0.002203056
0.002216746
0.00227324
0.002341382
0.002394186
0.002438324
0.002481023
0.00250864
0.00250505
0.002479925
0.002459129
0.00247817
0.002543394
0.002617661
0.002657497
0.00263704
0.002555726
0.002437854
0.002296017
0.002146096
0.002013347
0.001940328
0.002026679
0.002231032
0.002414027
0.00252985
0.002579253
0.002563373
0.002493744
0.002412299
0.002325646
0.002230785
0.00216926
0.002194621
0.002232313
0.0022859
0.0023125
0.002292136
0.002271461
0.00223855
0.002209789
0.002229942
0.002283
0.00233402
0.002361182
0.002383464
0.002418482
0.002448052
0.002453242
0.002440497
0.002422951
0.00242665
0.002469087
0.002538764
0.00260028
0.002620217
0.002581976
0.002496308
0.002379319
0.00224105
0.002099298
0.00198084
0.001930564
0.002020494
0.00220208
0.002380239
0.002491788
0.00252385
0.002481117
0.002398194
0.002321659
0.002242766
0.002195495
0.002215873
0.002206473
0.002337311
0.002355828
0.002318577
0.002284848
0.002238598
0.002208041
0.00224392
0.002293968
0.002327562
0.002327451
0.002327767
0.002356316
0.002388703
0.002405018
0.002406159
0.002397306
0.002389138
0.002403576
0.002453837
0.002520156
0.00256837
0.002572961
0.002526023
0.002440815
0.002329055
0.002201127
0.002075242
0.001979476
0.001950561
0.002016846
0.00215411
0.002314834
0.002419613
0.002436902
0.002385356
0.002322647
0.002267978
0.002236601
0.002260507
0.002244963
0.002380218
0.002396756
0.002350646
0.00231119
0.00227027
0.002254163
0.002283537
0.002322231
0.002340027
0.002319049
0.002296785
0.00231049
0.002337316
0.002361125
0.002376028
0.002378254
0.002370424
0.002363257
0.002378999
0.002430114
0.002488036
0.002522597
0.002516784
0.002469182
0.002390448
0.002290789
0.002179609
0.002075844
0.001999156
0.001975764
0.002011809
0.002110336
0.00223669
0.002330892
0.002349732
0.002325535
0.002295709
0.002283215
0.002324258
0.002357589
0.002424484
0.002451434
0.002411588
0.002377058
0.002350882
0.002339166
0.002355654
0.00237791
0.002381265
0.002351216
0.002309815
0.002297277
0.002309796
0.002331946
0.002351741
0.00236115
0.00235882
0.002347148
0.002334875
0.002347334
0.002394268
0.002441421
0.002464981
0.002455776
0.002414981
0.002348947
0.002266264
0.002176795
0.0020933
0.002029874
0.002005767
0.002020614
0.002073062
0.002166476
0.002254893
0.0023011
0.002321907
0.002334015
0.002393104
0.002464325
0.00247244
0.002517879
0.002486344
0.002453404
0.002434925
0.002423874
0.002431442
0.002443615
0.00243972
0.002411149
0.002369083
0.002334867
0.002321582
0.002326494
0.002336471
0.002341837
0.002340564
0.002333324
0.002317242
0.002298807
0.002307569
0.002348546
0.002387162
0.00240631
0.00240067
0.002370505
0.002319987
0.002256847
0.002187649
0.002120058
0.002065425
0.002037382
0.002035523
0.002052233
0.00210978
0.002202451
0.002299661
0.002389104
0.002476234
0.002533915
0.002512855
0.002574511
0.0025502
0.002514351
0.002500667
0.002495729
0.002502529
0.002508834
0.002503517
0.002480203
0.002442092
0.002393667
0.002352539
0.002334199
0.002327492
0.002321256
0.002313876
0.002307791
0.002298865
0.002279358
0.002255583
0.002263694
0.002301868
0.002339454
0.002361093
0.002362131
0.002341771
0.002305713
0.002258189
0.002201877
0.002142206
0.002089803
0.002055576
0.002038155
0.002032507
0.002078514
0.002184289
0.002324005
0.002461763
0.002455931
0.002558078
0.0026332
0.002602127
0.002554718
0.002546271
0.00254344
0.002552511
0.002559717
0.002558589
0.002537756
0.002493969
0.002433469
0.002377074
0.002342306
0.00231998
0.0022993
0.002281317
0.002271436
0.002266759
0.002258537
0.002237565
0.002213256
0.002227423
0.002268517
0.002309997
0.002335085
0.002340108
0.002326201
0.00229842
0.002257276
0.002204483
0.002145599
0.002089863
0.00204661
0.002017241
0.00201653
0.00207012
0.002163177
0.002271269
0.002244497
0.002625198
0.002698231
0.002640828
0.00258665
0.002585903
0.002585233
0.002594689
0.002603977
0.002604625
0.002581733
0.002528489
0.002458064
0.002393761
0.002348049
0.002312391
0.00227668
0.0022456
0.002228306
0.002223595
0.00222382
0.002218217
0.002199363
0.002182255
0.002209046
0.002254405
0.002297201
0.002322282
0.002326334
0.00231343
0.002285422
0.002243052
0.002189052
0.002128504
0.002064586
0.002011505
0.001997084
0.002026672
0.002089583
0.002147088
0.002122048
0.002718369
0.002775684
0.002692008
0.002637356
0.002641836
0.002640522
0.002645677
0.002651197
0.002645925
0.002615388
0.002555249
0.002479819
0.002412242
0.002358109
0.002309435
0.002257423
0.002210885
0.002183517
0.002175742
0.002179903
0.002186011
0.002184353
0.002171662
0.002169197
0.002205737
0.002253784
0.002293773
0.00231392
0.002313631
0.002295894
0.002263407
0.002219044
0.002164241
0.002097554
0.002021976
0.001978018
0.002008782
0.002102984
0.002166853
0.002133868
0.002832402
0.002876522
0.0027681
0.002712414
0.002712278
0.002702992
0.002695763
0.002688184
0.002671409
0.002634172
0.002574505
0.002503719
0.002438919
0.002379732
0.002318724
0.002249384
0.002184942
0.002144592
0.002131037
0.00213606
0.002148593
0.002159258
0.002161663
0.002154992
0.00216854
0.002214144
0.002263547
0.002299411
0.002312125
0.002302994
0.002278752
0.002245267
0.0022032
0.00214875
0.002082755
0.002026966
0.002042544
0.002112093
0.002159568
0.002141835
0.002945516
0.002982227
0.002851908
0.002787152
0.002770922
0.002746508
0.002723247
0.002701119
0.002674397
0.002636019
0.002584876
0.002527756
0.002472475
0.002414275
0.002344907
0.00226065
0.002178226
0.002122675
0.002100478
0.002102878
0.002117372
0.002133761
0.002146001
0.002149331
0.002152143
0.002185302
0.002238619
0.002287791
0.002316029
0.002317449
0.002301863
0.002280486
0.002255721
0.002224272
0.00218504
0.002140545
0.002107753
0.002103474
0.002137871
0.002135644
0.003042358
0.00307505
0.002927843
0.002846387
0.002806091
0.002763662
0.002725579
0.00269322
0.002662632
0.002629153
0.002591447
0.002551377
0.002508969
0.002456691
0.002385279
0.002292936
0.002197976
0.002129042
0.002096772
0.002092797
0.002103937
0.002120211
0.002135781
0.002147554
0.00215652
0.002175712
0.002222648
0.002277976
0.002319938
0.002336952
0.002334648
0.002326901
0.002320616
0.002313431
0.002296094
0.002247972
0.002173043
0.002119583
0.002136091
0.002139287
0.003112341
0.003142242
0.002986807
0.002887776
0.002823377
0.002763831
0.002713857
0.002676003
0.002646163
0.002620243
0.002596337
0.002572369
0.002542879
0.00249844
0.002430651
0.00233876
0.002241244
0.002167237
0.002128363
0.002116384
0.00211928
0.002129306
0.002142746
0.002157021
0.002170289
0.002184466
0.002215372
0.002265844
0.00231586
0.002348672
0.002364646
0.002375966
0.002392319
0.002408149
0.002404525
0.002349939
0.002246715
0.002162356
0.002154492
0.002151724
0.003146612
0.003171667
0.003016973
0.002906759
0.002823826
0.002750811
0.002692186
0.0026517
0.002624965
0.002607425
0.002596325
0.00258624
0.002567825
0.002531224
0.00246979
0.002385477
0.00229626
0.002227887
0.002189639
0.002173001
0.002167324
0.002167331
0.002171924
0.002179188
0.002186755
0.002194237
0.002209665
0.002244315
0.002292904
0.002339774
0.002377746
0.002417441
0.002465502
0.002503805
0.002506979
0.00243999
0.002313037
0.002210856
0.002183892
0.002176873
0.003140259
0.003156697
0.003010394
0.002897274
0.002803702
0.002722076
0.002658049
0.002617195
0.002595613
0.002587211
0.002587603
0.002588787
0.002579452
0.002549987
0.002496351
0.002423845
0.002350258
0.00229559
0.002264325
0.00224858
0.002239412
0.002231607
0.002222956
0.002212999
0.00220231
0.002192283
0.002189826
0.00220728
0.002250082
0.00230619
0.00236889
0.002444384
0.002527123
0.002587086
0.002591547
0.002503207
0.002365305
0.002252899
0.002219434
0.002215475
0.003094366
0.003099024
0.00296493
0.002855647
0.002759127
0.002674138
0.002608447
0.002569959
0.002555261
0.002556147
0.002566525
0.002576987
0.002575737
0.002553381
0.002508584
0.002450261
0.002395321
0.00235719
0.002336007
0.002324697
0.002315762
0.002303448
0.002282815
0.002252976
0.00221796
0.002184742
0.002164564
0.002170083
0.00220472
0.002260911
0.00233985
0.002446026
0.002560694
0.002642568
0.002646304
0.002542538
0.002404779
0.002287888
0.002252044
0.002249409
0.003013751
0.003005832
0.002883684
0.002781773
0.002688183
0.002604773
0.002541633
0.00250845
0.002501877
0.002511791
0.002530804
0.002549273
0.002555554
0.00254081
0.00250626
0.002463337
0.002427265
0.00240566
0.002395539
0.002390145
0.002382324
0.002366277
0.002335757
0.002288865
0.002231313
0.00217617
0.002141666
0.002141457
0.002169431
0.002215318
0.002295253
0.002426217
0.002563456
0.002660257
0.00266548
0.002564791
0.002430906
0.00231342
0.002274976
0.002274239
0.002904269
0.002885369
0.002773127
0.002679118
0.002591836
0.002514128
0.002457684
0.002432762
0.002435272
0.002453811
0.00248044
0.002506225
0.00252001
0.002514309
0.002492171
0.002466096
0.002448599
0.002442739
0.002443515
0.002443805
0.002436321
0.002414782
0.002373709
0.002313056
0.002238362
0.002167015
0.002121725
0.002113928
0.002132098
0.002168666
0.002247189
0.002393381
0.002538725
0.002643279
0.002656411
0.002569897
0.00244294
0.002329682
0.002290742
0.002294817
0.002772121
0.00274457
0.002641148
0.002554022
0.002474448
0.002405432
0.002359168
0.00234518
0.002357653
0.002384672
0.002418686
0.002452206
0.002474726
0.002480423
0.002473589
0.0024664
0.002467327
0.002475729
0.002485509
0.002488869
0.00247774
0.002445367
0.002390291
0.002313777
0.002225028
0.002141087
0.002084516
0.002068133
0.002077644
0.002110112
0.002196925
0.00235124
0.002492584
0.002595381
0.00261771
0.002549541
0.002436013
0.002335168
0.002300335
0.002307124
0.002625638
0.002592436
0.002496942
0.002415024
0.002343235
0.002284747
0.002251078
0.002250083
0.002273398
0.002309493
0.002352088
0.002395211
0.00242885
0.00244864
0.002460335
0.00247412
0.002493534
0.002514542
0.002529622
0.002529643
0.002505543
0.002452272
0.002375749
0.00228447
0.002189012
0.002100817
0.002039888
0.002021832
0.002030464
0.00205735
0.002150489
0.002305196
0.002427696
0.002515631
0.002540397
0.002491262
0.002400489
0.002320352
0.002286275
0.002281445
0.00247542
0.002441781
0.00235209
0.002273251
0.002207631
0.002160037
0.002140525
0.002153999
0.002189218
0.002235909
0.002289483
0.002344771
0.002392285
0.002429259
0.002463552
0.002501696
0.002541687
0.002575306
0.00259265
0.002582488
0.002537652
0.00246267
0.002373449
0.002282289
0.002194191
0.002114623
0.002057631
0.002034669
0.002028711
0.00203801
0.002135251
0.002266243
0.002354823
0.002413558
0.002428557
0.002393169
0.002329695
0.002273687
0.002234224
0.002211297
0.002337408
0.002309976
0.002224047
0.002145484
0.002081277
0.002041589
0.002035584
0.002064187
0.002112401
0.002171506
0.002237898
0.002306873
0.002371759
0.002432889
0.002497762
0.002566289
0.002629287
0.002675857
0.002694786
0.002674952
0.002615753
0.00252995
0.002437207
0.002349411
0.002269051
0.002198025
0.002142612
0.002107191
0.002079253
0.002064112
0.002140984
0.002245732
0.002294876
0.002316417
0.002309538
0.002277243
0.002236818
0.002208424
0.002177735
0.002146152
0.002232082
0.00221937
0.002136054
0.002060918
0.001995329
0.001952802
0.001953661
0.001995673
0.002054808
0.002124568
0.002202479
0.002286528
0.002373695
0.0024651
0.002561959
0.002658394
0.002742315
0.00280086
0.002819209
0.002788783
0.002720048
0.002631038
0.00253924
0.002454581
0.002379824
0.00231586
0.002264416
0.002225484
0.002188136
0.002162496
0.002155545
0.002220526
0.00225018
0.002254437
0.002237963
0.002209447
0.002184011
0.002179649
0.002167156
0.002130833
0.002178816
0.002192287
0.002128535
0.002068149
0.002008417
0.001952043
0.001924798
0.00196637
0.002028152
0.00210524
0.002193606
0.00229049
0.002392925
0.00250296
0.00261961
0.002736158
0.002838559
0.002906394
0.002923619
0.002890168
0.002821477
0.002739342
0.002656851
0.002580142
0.002510941
0.002448533
0.002391034
0.002346578
0.002321292
0.002293006
0.002226008
0.002203115
0.002201528
0.00220491
0.002199262
0.002187384
0.002186025
0.002207161
0.0022235
0.002190767
0.002194896
0.002225449
0.002181793
0.002125714
0.002082193
0.002040499
0.002004189
0.002034805
0.002091485
0.002168032
0.002255009
0.002347442
0.002447425
0.002560959
0.002683797
0.002803503
0.002903407
0.002964397
0.002972396
0.002932217
0.002865932
0.002790945
0.002719033
0.002652617
0.002588581
0.002521954
0.002452086
0.002400381
0.00239268
0.002388377
0.002317348
0.002280605
0.00227979
0.002282006
0.002267006
0.002242083
0.002235302
0.002255147
0.002274196
0.002211285
0.002176835
0.002221801
0.002217945
0.002161616
0.002127982
0.002093522
0.002065884
0.00210839
0.002179198
0.002264034
0.002354502
0.002447582
0.002546599
0.002652964
0.002755785
0.002841108
0.002896103
0.002908656
0.002874181
0.002807302
0.002730818
0.002660426
0.00260043
0.002546349
0.002490799
0.002426508
0.002357445
0.002315826
0.00233356
0.002363769
0.002355893
0.002344579
0.002340387
0.002328526
0.002300539
0.00226448
0.002236702
0.002224122
0.002198597
0.002070154
0.002729361
0.002363834
0.002307214
0.002377201
0.00244681
0.002498096
0.002523492
0.002550905
0.002595262
0.002644682
0.002680244
0.002715326
0.002763662
0.002796992
0.002772636
0.002678775
0.00256531
0.002483731
0.002445486
0.002468394
0.002551506
0.002652257
0.002743527
0.002810208
0.002843012
0.002840762
0.002804573
0.002746584
0.002695704
0.002645706
0.002569503
0.002492973
0.002429143
0.002369202
0.002314641
0.00227569
0.002240499
0.002185391
0.002221992
0.00230438
0.00231149
0.003660652
0.004231672
0.004134085
0.003971305
0.003850495
0.003710729
0.003533477
0.003356972
0.003211557
0.003110949
0.003044042
0.003005799
0.003001799
0.003019335
0.00304784
0.003083639
0.003111737
0.003132695
0.003160778
0.003130249
0.003051811
0.003004185
0.00305826
0.003244551
0.003490382
0.00370896
0.003880221
0.004064059
0.004181234
0.004309806
0.004486311
0.004685843
0.004877868
0.005013993
0.005052929
0.004954457
0.004683291
0.004238849
0.002201483
0.002338011
0.004238115
0.005225556
0.005233985
0.005305166
0.005325398
0.005167362
0.004882252
0.004531767
0.004181793
0.003857366
0.00357058
0.003349075
0.003223544
0.003189666
0.003213697
0.003247522
0.003281304
0.003325826
0.003464817
0.003610957
0.003745452
0.003918559
0.004160996
0.004457586
0.004786061
0.005104338
0.005371012
0.005579284
0.005698673
0.005795101
0.005943505
0.00612843
0.006300882
0.006391545
0.006324814
0.006049808
0.005533127
0.004740135
0.002157718
0.002261209
0.004668192
0.00578292
0.005941605
0.006277615
0.006353718
0.006306058
0.006147065
0.00583837
0.005369525
0.004806476
0.004223999
0.003726319
0.003417932
0.003296054
0.003295534
0.003316158
0.00333954
0.00337962
0.003551011
0.003813013
0.004107065
0.004453954
0.004838388
0.005194011
0.005500259
0.005775633
0.006015974
0.006212495
0.006366022
0.00653313
0.006756804
0.007010073
0.007232589
0.007346686
0.007256858
0.006885844
0.006187652
0.005113305
0.002201128
0.002208206
0.00486725
0.005945738
0.006513183
0.006989564
0.007071566
0.007107524
0.007037079
0.006803445
0.006355135
0.005676466
0.004880009
0.00409416
0.003574371
0.003354274
0.003327588
0.00336156
0.003393087
0.003430796
0.003587365
0.003891457
0.004278917
0.004755425
0.005264067
0.005696229
0.00599935
0.006217155
0.006383091
0.006528928
0.006680212
0.006873703
0.007126948
0.00741056
0.007668068
0.007823357
0.007763157
0.007358467
0.006540025
0.005285388
0.002257938
0.00218285
0.004561593
0.006069887
0.007121959
0.007409641
0.007516048
0.007593571
0.007585023
0.00740004
0.006989023
0.006278437
0.005370173
0.004409831
0.003718149
0.003412067
0.003361933
0.003419807
0.003477236
0.003524599
0.003639406
0.003895823
0.004252313
0.00475262
0.005343695
0.005889921
0.00625545
0.006482151
0.006636699
0.006764382
0.006906852
0.007092502
0.007329352
0.007594207
0.00784089
0.008003736
0.00795907
0.007529118
0.006629453
0.00528178
0.002297691
0.002246909
0.004358259
0.006436472
0.007311347
0.007610434
0.007704006
0.007755287
0.007748816
0.007588045
0.007203684
0.006561418
0.005646332
0.004635314
0.003866273
0.003506509
0.003438366
0.003523035
0.003609661
0.003677706
0.003739992
0.003886574
0.004098009
0.004475138
0.005019931
0.00563337
0.006159231
0.006465958
0.006662456
0.006821227
0.006983789
0.007174059
0.007396082
0.007618507
0.007796485
0.007969677
0.007945281
0.007486567
0.006530934
0.005140614
0.00232502
0.002276838
0.00432218
0.006412681
0.007294348
0.007618873
0.007677751
0.007655444
0.007590391
0.007416648
0.007070622
0.006526485
0.005727654
0.00479601
0.004020934
0.003645758
0.003559637
0.003666266
0.003800065
0.003901089
0.0039188
0.003947335
0.003978278
0.004125751
0.004480245
0.004982471
0.005598128
0.006115461
0.006415008
0.006645177
0.006859815
0.00707875
0.007289995
0.007356176
0.007381598
0.007533786
0.007772891
0.007329152
0.00635952
0.004865336
0.002350401
0.002277546
0.004199498
0.006153381
0.007112147
0.007479593
0.007536406
0.00745979
0.007327097
0.007126511
0.006821622
0.006379059
0.005751822
0.00492987
0.004178723
0.003806543
0.003695596
0.003818368
0.004039567
0.00418638
0.004194196
0.004143037
0.004034615
0.003939382
0.004016015
0.004290037
0.004707906
0.005308751
0.005875285
0.006240483
0.006544206
0.006817681
0.006978837
0.0069528
0.006932992
0.00700101
0.007258129
0.007138633
0.00620166
0.004631875
0.002382925
0.002237955
0.003998453
0.005729419
0.006861472
0.007355724
0.007518543
0.007474487
0.007304207
0.007055358
0.006740732
0.006343229
0.005807023
0.005051807
0.004309896
0.003934882
0.003797641
0.003945069
0.004267107
0.004496294
0.004547858
0.004480897
0.00431615
0.004051469
0.003834974
0.003807901
0.003963395
0.004296913
0.004902345
0.005535081
0.006024759
0.006368518
0.006470549
0.006473651
0.006463139
0.006518986
0.006823848
0.00699311
0.006089126
0.004636263
0.002388882
0.0021934
0.003832001
0.005336891
0.006600169
0.007261284
0.007590387
0.007658566
0.007504604
0.007212179
0.00685108
0.006439023
0.00589425
0.00514674
0.004394669
0.004003653
0.003838026
0.003996883
0.004381819
0.004758618
0.004916273
0.004900198
0.004758581
0.004456237
0.004032724
0.003673962
0.003535061
0.003614632
0.003893773
0.004449717
0.005093708
0.005587032
0.005811177
0.005915657
0.006018053
0.006238182
0.006818292
0.006904877
0.006009375
0.004692235
0.002361032
0.002188453
0.00376123
0.005069004
0.006295705
0.007070742
0.007524703
0.007719652
0.007637083
0.007360353
0.006990454
0.006531613
0.00597667
0.005216708
0.004460928
0.004041979
0.003834419
0.00395241
0.004346938
0.00483914
0.005193151
0.00529889
0.005234048
0.004991335
0.004534707
0.003916377
0.003416325
0.003217256
0.003245588
0.003490085
0.003958656
0.004512969
0.004966945
0.005273256
0.005595844
0.006101824
0.006915986
0.006802617
0.005940424
0.004635127
0.002346579
0.002226469
0.003750818
0.004948571
0.00600462
0.006795657
0.007298718
0.007580715
0.007582234
0.007362909
0.006952948
0.006523821
0.006036194
0.005297977
0.00455655
0.004107166
0.003853267
0.00387107
0.004186262
0.004668872
0.005220125
0.005538398
0.005612116
0.005473231
0.005122354
0.00450093
0.003701111
0.003120422
0.00289279
0.002929211
0.00318854
0.003598507
0.00408036
0.004602213
0.005172443
0.005941645
0.006798435
0.006664036
0.00584335
0.004560261
0.002348041
0.002272191
0.003777314
0.00494192
0.005786381
0.006518072
0.007017042
0.007333582
0.007394482
0.007112562
0.006698413
0.006419689
0.006061733
0.005404623
0.004719631
0.004259636
0.003972832
0.003857807
0.004008887
0.00437467
0.004902963
0.005485936
0.005754755
0.005777794
0.00555796
0.005096636
0.004343956
0.00346741
0.002901124
0.002711922
0.002852392
0.00311945
0.003491079
0.004009724
0.004704688
0.005603455
0.006577324
0.006467641
0.005663427
0.004424607
0.002317931
0.00231556
0.003785753
0.004859844
0.005577253
0.006263721
0.006756038
0.00706035
0.007043653
0.006658437
0.006420863
0.006305089
0.00609146
0.005547443
0.004952258
0.004516004
0.004221119
0.004000616
0.003935965
0.004100462
0.004474655
0.005034572
0.005558706
0.005792587
0.005766834
0.005486171
0.004966899
0.004213714
0.003390394
0.002873652
0.002744273
0.002885352
0.003147008
0.003558959
0.004162048
0.005015071
0.00615674
0.006210835
0.005424976
0.004144114
0.002263168
0.002362257
0.003609289
0.004540684
0.005234267
0.005922431
0.006455857
0.006595133
0.006420315
0.006194519
0.006168145
0.00620175
0.006094949
0.005659641
0.005182169
0.00484049
0.004589509
0.004338842
0.004075038
0.003974356
0.004126466
0.004504004
0.005047598
0.005487198
0.005678618
0.005639168
0.005366263
0.004900605
0.004275525
0.00356513
0.003036213
0.002837191
0.002913037
0.003190764
0.003658642
0.004330861
0.005366209
0.005933285
0.005274697
0.003941348
0.002439505
0.002410556
0.003329267
0.004048834
0.00469627
0.005298951
0.005644735
0.005648111
0.005568795
0.005494862
0.005672931
0.005869719
0.005868431
0.005617814
0.005371474
0.005204366
0.005055179
0.004830979
0.004466975
0.004102068
0.003979145
0.004136414
0.004501907
0.004987775
0.00537178
0.005571839
0.005588506
0.005393553
0.005040134
0.004551477
0.00392676
0.003323066
0.002976484
0.00296289
0.003268174
0.003761785
0.004488798
0.005580354
0.005189144
0.003976462
0.002492254
0.002452508
0.003144361
0.003784246
0.004434057
0.004940875
0.005103593
0.004991417
0.004792812
0.004677433
0.004957483
0.005357208
0.005570811
0.005637886
0.005670991
0.005656688
0.005585745
0.005409296
0.005045762
0.004538364
0.004127087
0.004018473
0.004191834
0.004551083
0.005016569
0.005429986
0.00569316
0.005765783
0.005612054
0.005305037
0.004890393
0.004347472
0.003710943
0.003217715
0.003075261
0.003325899
0.003722557
0.004541467
0.004911532
0.00388596
0.002458103
0.0024817
0.003074857
0.003768874
0.004510463
0.005021703
0.005104546
0.004816874
0.004449652
0.004265218
0.004480234
0.004978337
0.005507728
0.005930779
0.006132381
0.006165152
0.006128863
0.006007295
0.005707527
0.005198054
0.00461271
0.004206616
0.004137176
0.00436072
0.00477455
0.005304419
0.005769956
0.006032405
0.006056915
0.005867749
0.005588705
0.005285287
0.004858833
0.004243645
0.0036408
0.003303271
0.003314557
0.003489219
0.003992577
0.003478597
0.002466293
0.002486057
0.003026906
0.003792164
0.004604085
0.005050451
0.005085365
0.004716488
0.004262656
0.004057788
0.00427403
0.00487074
0.005718333
0.006336264
0.00655858
0.006593953
0.00659373
0.006533584
0.006321423
0.005916163
0.005343089
0.004752241
0.004372359
0.004376114
0.0046896
0.00518449
0.005768943
0.006174347
0.00635457
0.006307179
0.00615427
0.006016256
0.00584271
0.005487635
0.004918722
0.004198576
0.00353865
0.003203566
0.003121448
0.00290143
0.002479631
0.002499204
0.002971571
0.003820101
0.004617285
0.005014481
0.005011071
0.004627593
0.004190475
0.004046262
0.0043206
0.005031769
0.006045186
0.006677133
0.006860825
0.006892375
0.006931167
0.006925095
0.006795219
0.006521387
0.006088096
0.005530411
0.004985772
0.004633575
0.004740732
0.005123295
0.005637554
0.006136516
0.006447758
0.006584895
0.006612642
0.006637446
0.006620106
0.006469997
0.006152083
0.005548436
0.004541282
0.003516999
0.003039995
0.002753178
0.002350585
0.002550247
0.002969351
0.003897676
0.004638939
0.0049043
0.004781271
0.004397023
0.004072094
0.004063824
0.004441