/*--------------------------------*- C++ -*----------------------------------*\
| =========                 |                                                 |
| \\      /  F ield         | OpenFOAM: The Open Source CFD Toolbox           |
|  \\    /   O peration     | Version:  2212                                  |
|   \\  /    A nd           | Website:  www.openfoam.com                      |
|    \\/     M anipulation  |                                                 |
\*---------------------------------------------------------------------------*/
FoamFile
{
    version     2.0;
    format      ascii;
    arch        "LSB;label=32;scalar=64";
    class       volScalarField;
    location    "3000";
    object      p;
}
// * * * * * * * * * * * * * * * * * * * * * * * * * * * * * * * * * * * * * //

dimensions      [1 -1 -2 0 0 0 0];

internalField   nonuniform List<scalar> 
96000
(
0
-0.0006147117
-0.002747634
-0.004405723
-0.005226935
-0.005561549
-0.005417282
-0.005016157
-0.004441256
-0.003617847
-0.002308699
-0.0006826829
0.0009193183
0.00266924
0.004603753
0.006553803
0.008300359
0.009646912
0.01048916
0.01091635
0.01114301
0.01129455
0.01141966
0.01153482
0.01161755
0.01160485
0.01148265
0.01136231
0.01134689
0.0113002
0.01111847
0.01084064
0.01054526
0.01026542
0.01000124
0.00977466
0.009590258
0.009548257
0.009789209
0.009900832
0.0002689761
-0.0002845187
-0.002376902
-0.003731306
-0.004568032
-0.004996668
-0.005004579
-0.004789519
-0.004352748
-0.003601351
-0.002379352
-0.0008452038
0.000731019
0.002495003
0.004478638
0.006494096
0.00834233
0.00988979
0.01096243
0.01148692
0.01163295
0.01162753
0.01169023
0.01189103
0.01214324
0.01224577
0.01215153
0.01200446
0.01188768
0.01174299
0.01152331
0.01124168
0.01095114
0.01066234
0.01037207
0.01013849
0.009988989
0.009959652
0.01006388
0.01006866
0.0002728726
-0.0002779576
-0.001676677
-0.002675968
-0.00333277
-0.003777834
-0.004022911
-0.004060179
-0.003804736
-0.003188162
-0.002172477
-0.0008495368
0.0006400428
0.00234828
0.004291106
0.006287235
0.008181477
0.009890626
0.0112444
0.01206956
0.01242943
0.01255586
0.01268115
0.01284508
0.0129879
0.01300239
0.01288055
0.01270093
0.01248734
0.01220137
0.01186297
0.0114985
0.01115127
0.01083797
0.01056505
0.01037734
0.01025896
0.01021028
0.01023505
0.01016276
0.0001922701
-0.0002069805
-0.001190373
-0.001961405
-0.002634609
-0.003185859
-0.003579983
-0.003764857
-0.003642384
-0.003145916
-0.002256799
-0.001033394
0.0004440007
0.002149005
0.004069204
0.006045595
0.007955832
0.009734367
0.01125588
0.0123051
0.01286968
0.01314826
0.01334736
0.01353233
0.01365717
0.01366134
0.01354018
0.01333061
0.0130424
0.01266183
0.01222476
0.01177699
0.01135836
0.01098758
0.01068171
0.01048367
0.0103722
0.01032636
0.01036582
0.01031705
4.957083e-05
-0.0002352701
-0.0008926344
-0.001528303
-0.002188025
-0.002720328
-0.003154511
-0.003424179
-0.003409447
-0.0030313
-0.002262666
-0.001143196
0.0002772661
0.001950961
0.003820416
0.005768305
0.007664071
0.009474037
0.01108576
0.01228301
0.0130097
0.01343219
0.01373605
0.01397488
0.01411135
0.01409842
0.01393299
0.01365861
0.01328561
0.01282132
0.01230653
0.01179365
0.01132143
0.01091485
0.01059251
0.01040078
0.01032144
0.01032165
0.01040838
0.01039669
-0.0008778986
-0.000763184
-0.0009340072
-0.001286353
-0.001727826
-0.002184198
-0.002617037
-0.002955783
-0.003053987
-0.00279911
-0.00213865
-0.00110965
0.0002255812
0.001799868
0.003561783
0.005473746
0.007371207
0.009206055
0.01089901
0.01223277
0.0131168
0.01367173
0.01405364
0.01430901
0.01441674
0.01435971
0.01413839
0.01380251
0.01336161
0.01282856
0.01224588
0.01166689
0.01113762
0.0106928
0.0103609
0.01019839
0.01017665
0.01024482
0.01034822
0.01033232
-0.0004727416
-0.0004650248
-0.0004206019
-0.0007196267
-0.001085543
-0.001496039
-0.001927364
-0.002332093
-0.002540287
-0.002411592
-0.001865459
-0.0009472449
0.0002452634
0.001654211
0.003321826
0.005196348
0.007081306
0.008914044
0.01066553
0.0121229
0.01315347
0.01383038
0.0142703
0.01451539
0.01456482
0.01444103
0.01416467
0.01376622
0.01326753
0.01267484
0.01203573
0.01141181
0.01085325
0.01039014
0.0100612
0.009942292
0.01000409
0.01016098
0.01025477
0.01016247
8.416847e-05
1.299657e-05
0.0001361737
-0.000101171
-0.0003835643
-0.0007355241
-0.00115976
-0.001622606
-0.001925755
-0.001910683
-0.001483091
-0.0006947514
0.0003000879
0.001566589
0.003167672
0.004979584
0.006819305
0.008622052
0.01039248
0.01194654
0.01311455
0.01389985
0.01438081
0.01459483
0.01456402
0.01435571
0.01401665
0.01354236
0.01298722
0.01234971
0.01167291
0.01103456
0.01046831
0.009999712
0.009691293
0.009642008
0.009809852
0.01007512
0.01012936
0.009931355
0.0006157188
0.0004568778
0.0006680879
0.0005092291
0.0003055012
1.647141e-05
-0.0003947269
-0.0009092116
-0.001296785
-0.001374905
-0.001055671
-0.0004144437
0.0004035387
0.001564356
0.003118343
0.004831522
0.0065892
0.008317508
0.01004934
0.01164357
0.01293357
0.01383624
0.01437749
0.01457618
0.01445883
0.01411358
0.01369321
0.0131519
0.01254649
0.01187843
0.0111892
0.01055859
0.009991613
0.009530226
0.009251583
0.009280683
0.009567083
0.009896271
0.01002046
0.009752759
0.001100017
0.0008670867
0.001116183
0.001025051
0.0008905657
0.0006625623
0.0002695603
-0.000279171
-0.0007346392
-0.0008842574
-0.0006582212
-0.000141816
0.0005756817
0.001654625
0.0031659
0.004760128
0.006407206
0.008015353
0.009636913
0.01119988
0.01255441
0.01357065
0.0142048
0.01444674
0.01429462
0.01379504
0.01314236
0.01254606
0.01194941
0.01129115
0.01063291
0.01000792
0.009444372
0.008995924
0.008744353
0.008819381
0.009139284
0.009484342
0.009821887
0.009598805
0.001403292
0.001120525
0.001387392
0.001373016
0.001301005
0.001127074
0.0007567226
0.0001969273
-0.0003003693
-0.0004903266
-0.0003170158
0.0001378302
0.0008137151
0.001834418
0.00326716
0.004746605
0.006264624
0.007740622
0.009200379
0.01064786
0.01196973
0.01303899
0.01375519
0.01406422
0.01393612
0.01338112
0.01255273
0.01183581
0.01123512
0.01062753
0.0100084
0.009409761
0.008876628
0.008455479
0.008233058
0.008326579
0.008602142
0.008965869
0.009445811
0.009453223
0.001458579
0.001138207
0.00145562
0.001537339
0.001529256
0.001391846
0.001032511
0.0004746243
-3.08171e-05
-0.0002134216
-3.15799e-05
0.0004231109
0.001104356
0.002081205
0.003397853
0.00477479
0.006160331
0.007490684
0.00877055
0.01003702
0.01124145
0.01226244
0.01299953
0.01335929
0.01328559
0.01275728
0.01189923
0.01114447
0.01054884
0.009974129
0.009418855
0.008863033
0.00834929
0.007934545
0.00773062
0.007831731
0.008088816
0.00847802
0.009004885
0.009120492
0.00125445
0.0009689781
0.001407611
0.001579562
0.001636044
0.001502859
0.00109921
0.0005399671
6.240167e-05
-5.706486e-05
0.000194274
0.0007117113
0.001431842
0.002365113
0.003541479
0.004813875
0.006078308
0.00726475
0.008383939
0.009449795
0.01047262
0.01137245
0.01205116
0.01242804
0.01242154
0.0120109
0.01122782
0.01043811
0.009813912
0.009280246
0.008792232
0.008288018
0.007813788
0.007443147
0.007278697
0.007386415
0.007641071
0.008042939
0.008567314
0.008613754
0.001049927
0.000863802
0.001355845
0.001536592
0.001631819
0.001462553
0.0009945744
0.0004555021
3.988414e-05
2.117055e-05
0.0003791767
0.0009813092
0.001751655
0.002654869
0.003679852
0.004823128
0.00599519
0.007072119
0.008047096
0.008929115
0.00974074
0.01047137
0.01104406
0.01138991
0.01145492
0.01120019
0.01061801
0.009887631
0.009208008
0.00872882
0.008266974
0.00781009
0.007406692
0.007106564
0.006964703
0.007058625
0.007288813
0.0076677
0.008147953
0.008168408
0.0009089401
0.00083432
0.001263326
0.00139967
0.001483277
0.001268229
0.000818612
0.0003257011
-1.420215e-05
8.771468e-05
0.0005543103
0.001241782
0.002064297
0.002962079
0.003868972
0.004839825
0.005906243
0.006911533
0.007774993
0.008498293
0.00910736
0.009636754
0.01007077
0.01035042
0.01044306
0.010332
0.009995455
0.009476305
0.008889605
0.008451245
0.00806522
0.007628754
0.007218763
0.00693563
0.00681181
0.006893958
0.007092323
0.007426786
0.007887208
0.007992684
0.0006568082
0.0005909488
0.0009329721
0.001069793
0.001112763
0.0008842516
0.0005019132
8.149915e-05
-6.73315e-05
0.000206107
0.0007884937
0.001558719
0.002430549
0.003331267
0.004183985
0.004994824
0.005884508
0.006794558
0.00756576
0.008154603
0.008597317
0.008931456
0.009195703
0.00938166
0.009461152
0.009428042
0.009282859
0.00899655
0.008633318
0.008273137
0.007972065
0.007649561
0.007256788
0.006923306
0.006771607
0.006843211
0.007023066
0.007259099
0.007630295
0.00765155
0.000261772
0.0002017062
0.0004078799
0.0005116008
0.0005020183
0.0003047305
4.218342e-05
-0.0001283201
-2.76699e-05
0.0003891593
0.00106006
0.001888869
0.002790263
0.003697403
0.004543488
0.005287636
0.005997594
0.00673527
0.007394975
0.007887611
0.008190383
0.008377342
0.008479036
0.008540195
0.008569922
0.008560819
0.008512262
0.008408087
0.008237194
0.008056781
0.007866126
0.007655647
0.007401872
0.00705684
0.006826068
0.006810926
0.006968357
0.007045499
0.007242437
0.007257585
-0.0002487456
-0.000325826
-0.0002224764
-0.0001725483
-0.0002251524
-0.000388682
-0.0005019774
-0.0004504392
-0.0001423077
0.0004218275
0.001189619
0.002082734
0.003027064
0.003962566
0.004827214
0.005566867
0.006175988
0.006733642
0.007255196
0.007652458
0.007877459
0.007946003
0.007937078
0.007882119
0.007831294
0.007802452
0.007793188
0.007795045
0.007783745
0.007746151
0.007698772
0.007602986
0.007413695
0.007206115
0.006904132
0.006725131
0.006734807
0.006733686
0.00673861
0.006676964
-0.0007263018
-0.0008221172
-0.0008081426
-0.0008283438
-0.0009111624
-0.001032031
-0.001017438
-0.0007950566
-0.000332396
0.0003419032
0.001186769
0.002143007
0.003144812
0.004125862
0.005018084
0.005763982
0.006337618
0.00676987
0.007141372
0.007441528
0.007605017
0.007624088
0.007534857
0.007410286
0.007292533
0.007222088
0.007216575
0.007263262
0.007350842
0.007445214
0.007502495
0.007505836
0.007425319
0.007207192
0.006918171
0.006604631
0.006393492
0.006331353
0.006205609
0.005994501
-0.001010294
-0.001102829
-0.001185843
-0.001290687
-0.001404874
-0.001493309
-0.0013885
-0.001054272
-0.0004964885
0.0002449681
0.001141536
0.002152266
0.003208417
0.004230493
0.005144017
0.00589025
0.006442298
0.006813435
0.007060065
0.007252094
0.007363878
0.007355455
0.00724653
0.007074669
0.006921662
0.006822929
0.00680784
0.006872117
0.006998047
0.007163936
0.00732904
0.007421601
0.007423652
0.007290378
0.006979262
0.006568565
0.006145279
0.005911345
0.005718057
0.00557406
-0.0009787321
-0.001066337
-0.001251397
-0.001443831
-0.001616757
-0.001698058
-0.001545007
-0.001153734
-0.0005552787
0.0002191239
0.001152774
0.002201208
0.003284723
0.004321442
0.005236349
0.0059702
0.006497032
0.006829673
0.007010522
0.007098191
0.00714087
0.007122493
0.007009926
0.006838385
0.006661181
0.006552438
0.006534946
0.006611835
0.006758874
0.006951009
0.007162323
0.007342221
0.007420253
0.007368208
0.007152052
0.006715366
0.006129874
0.005715764
0.005466793
0.005426139
-0.00060542
-0.0007003426
-0.0009615912
-0.001273311
-0.001514089
-0.001605818
-0.001436635
-0.001034822
-0.000435185
0.000345004
0.00129182
0.002346144
0.003422229
0.004440637
0.005329603
0.006032353
0.00652437
0.006819185
0.00695819
0.006991539
0.006964915
0.006913596
0.006824182
0.006663942
0.006480565
0.006361508
0.006345315
0.006432639
0.006597697
0.006804922
0.007028729
0.007239604
0.007382451
0.007401568
0.007271615
0.006962128
0.006302716
0.005701478
0.005301851
0.005238531
6.901333e-05
-4.223889e-05
-0.0003621981
-0.0007851478
-0.001083269
-0.001209709
-0.001065529
-0.0006918345
-0.0001114828
0.0006588441
0.001595917
0.002624683
0.003656886
0.004623014
0.005456211
0.006105042
0.006547941
0.006798509
0.006896418
0.006891522
0.006830597
0.006748819
0.006676948
0.006546974
0.006373109
0.006234614
0.006219366
0.006306625
0.006474599
0.006683305
0.006900182
0.007102707
0.007262416
0.007341969
0.007296802
0.007138589
0.006580489
0.005944018
0.005317477
0.005164664
0.001011367
0.0008903405
0.0005509224
3.142232e-05
-0.000323174
-0.0005064668
-0.0004174169
-9.945191e-05
0.0004427317
0.001187823
0.002088647
0.003061237
0.004018539
0.004898808
0.005646766
0.006217071
0.006592787
0.006788179
0.006840218
0.00679594
0.006701289
0.006596544
0.006513861
0.006441136
0.006293342
0.006125485
0.006087335
0.006176327
0.006336014
0.006533981
0.006728633
0.006901726
0.007045852
0.007142558
0.007163234
0.007078802
0.006778349
0.00638704
0.00566949
0.005188042
0.002198838
0.002090418
0.001734027
0.001160814
0.0007599818
0.0005084578
0.0005274393
0.0007802124
0.001268639
0.001961217
0.002792414
0.003675457
0.004529476
0.005294994
0.005929649
0.006397134
0.006685521
0.006810512
0.006806302
0.006716228
0.006582712
0.006445311
0.006338439
0.006259064
0.006174752
0.006018691
0.005930462
0.005993204
0.006138448
0.006313328
0.006481228
0.006619755
0.006739174
0.006832321
0.006886704
0.006916004
0.006844828
0.00663927
0.005956518
0.005214397
0.003606446
0.003534586
0.003152459
0.002565645
0.002136383
0.001825937
0.001781988
0.001969715
0.002389393
0.002998494
0.003725711
0.004487191
0.005209008
0.005834311
0.006329386
0.006671073
0.006851379
0.006887467
0.006811578
0.006663588
0.006482673
0.006305997
0.006165419
0.006058624
0.005965514
0.005855465
0.005771687
0.005772659
0.005876565
0.006013315
0.006137235
0.006235689
0.006328887
0.006404479
0.006469553
0.006599288
0.006698723
0.006575312
0.00596123
0.005135386
0.005220998
0.005196039
0.004790862
0.004213686
0.003776421
0.003432314
0.003342705
0.003468383
0.003805057
0.004303795
0.004896357
0.005507065
0.006069485
0.006532332
0.006866108
0.007058619
0.007110424
0.007037439
0.00687128
0.006649358
0.006408535
0.006183434
0.005998573
0.005849646
0.005718868
0.005611055
0.005547289
0.00552188
0.005553448
0.005628754
0.005696715
0.005746185
0.005798005
0.005837355
0.005886986
0.006072662
0.006297274
0.006201251
0.005624923
0.004800446
0.007008219
0.007049349
0.006639437
0.006089542
0.005661257
0.005308124
0.005187255
0.005252116
0.005493447
0.005861662
0.006296376
0.006732882
0.007114068
0.007395371
0.007551364
0.007575247
0.007476844
0.007275195
0.006999301
0.006685386
0.006369005
0.006081901
0.005839369
0.005637966
0.005462212
0.005324005
0.005241687
0.005195029
0.005166108
0.00515671
0.005143484
0.005132227
0.005125852
0.005115823
0.005148153
0.005379265
0.005717474
0.005682095
0.005167172
0.004323367
0.008906922
0.009050761
0.008667772
0.008165767
0.00776032
0.007414201
0.007270925
0.007276176
0.007415105
0.007640713
0.007903244
0.008150558
0.008335874
0.008421751
0.008387243
0.008229709
0.007962651
0.00761191
0.007208364
0.006785674
0.006377418
0.006013011
0.005702137
0.005441926
0.005215358
0.005022385
0.004877332
0.004776632
0.004687707
0.00459425
0.004473837
0.004372921
0.004288654
0.004227985
0.004254243
0.004535342
0.004949371
0.004972908
0.004534115
0.003720064
0.01082984
0.01112953
0.0108207
0.01039022
0.01001811
0.009688674
0.009530185
0.009480823
0.009517986
0.00959831
0.009683743
0.009735487
0.009717597
0.009600211
0.009367091
0.009019232
0.00857351
0.008058991
0.007510648
0.006964397
0.006451679
0.005997872
0.005610075
0.005282759
0.00498997
0.004708415
0.004457326
0.004255532
0.004087958
0.003923803
0.003682155
0.003461327
0.003290974
0.003196667
0.003237889
0.003579205
0.004054538
0.00414251
0.003811244
0.003063204
0.01266973
0.01317823
0.01301193
0.01268144
0.01235612
0.01205358
0.0118891
0.01179416
0.01173689
0.01167806
0.01159093
0.01144974
0.0112294
0.01090763
0.01047295
0.009929568
0.009298653
0.008613808
0.007913096
0.007233608
0.006606944
0.006054143
0.005576077
0.005155402
0.004754164
0.004342748
0.003950338
0.003611111
0.00333198
0.003100893
0.002759818
0.002420656
0.002173286
0.002070623
0.002150251
0.002547024
0.003068124
0.003228853
0.003024139
0.002296923
0.01431872
0.01508142
0.01513145
0.01493979
0.01468367
0.01442196
0.01426174
0.01413218
0.01399336
0.01380983
0.01356413
0.01324195
0.01282843
0.01230848
0.01167468
0.0109355
0.01011843
0.009262842
0.008409542
0.007596156
0.006852167
0.006191293
0.005597283
0.005032708
0.004464522
0.003892501
0.003347206
0.002857358
0.002439229
0.00213434
0.001714487
0.001282669
0.0009907048
0.0009060442
0.001032223
0.001467333
0.002009816
0.002211582
0.002088066
0.001373377
0.015677
0.01674803
0.01706777
0.017058
0.01690528
0.01670242
0.01655629
0.01640357
0.01619996
0.01591311
0.01553176
0.0150499
0.0144616
0.01375772
0.01293496
0.01200793
0.01101141
0.00999022
0.008987261
0.008040541
0.007172885
0.00637783
0.005616872
0.004858587
0.004110052
0.003391089
0.00271236
0.002083797
0.001520148
0.001105949
0.0005909414
8.99857e-05
-0.0002088672
-0.000257041
-8.65357e-05
0.0003802193
0.0009451231
0.001191529
0.001165725
0.0004690646
0.01665534
0.01811092
0.01874506
0.01893972
0.01892442
0.01880321
0.01868536
0.0185253
0.01827937
0.01791751
0.0174311
0.01681879
0.0160819
0.01521675
0.01422471
0.01312516
0.01195802
0.01077314
0.00961733
0.008521873
0.007491547
0.006499925
0.005528061
0.004587078
0.003698555
0.002867475
0.002080536
0.001340399
0.0006377543
9.194582e-05
-0.0005449442
-0.001099907
-0.001389728
-0.001389742
-0.001173723
-0.0006731714
-8.295434e-05
0.0002198066
0.0003201001
-0.0003786183
0.01730004
0.01915827
0.02014505
0.02052395
0.02063837
0.02061279
0.02054268
0.02040134
0.02014621
0.01974842
0.019199
0.01849878
0.01765462
0.01666207
0.01551993
0.01425185
0.01291057
0.0115562
0.01023235
0.008957882
0.007726895
0.006528679
0.005371515
0.004275505
0.003256994
0.002312292
0.001423127
0.0005918977
-0.0002021521
-0.0008521991
-0.001617435
-0.002226284
-0.002496415
-0.002442132
-0.00217009
-0.001635043
-0.001033618
-0.0006751282
-0.0004465285
-0.001220452
0.0178684
0.02006575
0.02136405
0.02188673
0.02203717
0.02206558
0.02205745
0.02196275
0.02173161
0.02134026
0.02078297
0.02005037
0.01913889
0.01803511
0.01675058
0.01532737
0.01382499
0.01230554
0.0108089
0.009356704
0.007945704
0.006575278
0.005255566
0.004007305
0.002847776
0.001779468
0.0007896589
-0.0001273851
-0.0009773693
-0.001736355
-0.002578855
-0.003215521
-0.003453222
-0.003351253
-0.003018947
-0.002452237
-0.001853646
-0.001448332
-0.001093704
-0.001969575
0.01872702
0.0210111
0.02237996
0.02300066
0.02323233
0.02330908
0.02329164
0.02318339
0.02296601
0.02260723
0.02208434
0.02136273
0.02041893
0.01924152
0.0178746
0.01635995
0.01473642
0.01306398
0.01140135
0.009800137
0.00824218
0.006724946
0.005257112
0.003861195
0.002557815
0.001358814
0.0002598441
-0.0007494468
-0.001664471
-0.002480226
-0.003422187
-0.004078532
-0.004270816
-0.004137661
-0.003715447
-0.003103073
-0.002512781
-0.002070916
-0.00161711
-0.002418815
0.01994221
0.02181196
0.02294754
0.02357071
0.02389278
0.02407024
0.02409796
0.02397943
0.02371415
0.02332624
0.0228192
0.02213074
0.02122138
0.02009851
0.01877847
0.01727052
0.01559735
0.01380328
0.01199319
0.01026875
0.008601341
0.006963273
0.00536533
0.003843382
0.002425049
0.001118639
-8.329347e-05
-0.001184514
-0.002195259
-0.00307334
-0.004004318
-0.004552792
-0.004646529
-0.004504169
-0.004085134
-0.003493456
-0.00293542
-0.002505163
-0.002075592
-0.00274521
0.0210506
0.02232039
0.0231375
0.0238016
0.02421706
0.02443732
0.0244254
0.02419467
0.02382691
0.02342751
0.02298172
0.02240342
0.0216422
0.02068235
0.01948339
0.01804974
0.01638673
0.0145147
0.01257949
0.01073418
0.008977846
0.007261297
0.005576488
0.003968727
0.002474402
0.00110499
-0.0001520383
-0.001326785
-0.002446434
-0.003477933
-0.004453396
-0.004965097
-0.005097094
-0.005030249
-0.004606033
-0.003986385
-0.00340056
-0.00295203
-0.002614148
-0.002984988
0.02187242
0.02257714
0.0232603
0.02391478
0.02421646
0.02427759
0.02404145
0.02353299
0.02301422
0.02265972
0.02234353
0.02192262
0.02130489
0.02044958
0.01932231
0.01792941
0.0162906
0.01444729
0.01254869
0.01071306
0.008947207
0.007230428
0.005553362
0.003950496
0.002458961
0.001094327
-0.0001552408
-0.001320611
-0.002425022
-0.003432278
-0.004323771
-0.004752729
-0.004876426
-0.004766507
-0.004363278
-0.003807222
-0.003219988
-0.002775179
-0.002534116
-0.002764646
-9.965004
-9.964571
-9.965543
-9.965945
-9.96599
-9.966168
-9.966288
-9.966192
-9.965795
-9.965137
-9.964227
-9.963063
-9.961626
-9.959926
-9.958029
-9.956144
-9.954471
-9.953148
-9.95213
-9.951271
-9.950548
-9.949986
-9.949623
-9.949454
-9.949546
-9.949896
-9.950396
-9.950899
-9.951191
-9.951392
-9.951697
-9.952089
-9.952457
-9.952781
-9.953058
-9.953242
-9.953253
-9.95305
-9.953014
-9.953031
-9.963924
-9.964523
-9.965445
-9.965794
-9.966031
-9.966333
-9.966462
-9.966362
-9.965979
-9.965306
-9.964396
-9.963273
-9.961843
-9.960128
-9.958227
-9.956366
-9.954664
-9.953192
-9.951905
-9.950872
-9.950077
-9.949516
-9.94921
-9.949042
-9.949019
-9.949225
-9.949622
-9.950087
-9.950503
-9.950936
-9.951381
-9.951818
-9.952218
-9.952574
-9.952875
-9.95309
-9.953208
-9.953205
-9.953146
-9.953024
-9.963818
-9.964407
-9.965152
-9.965428
-9.965789
-9.966217
-9.966439
-9.966405
-9.966078
-9.965468
-9.964599
-9.963485
-9.962081
-9.960391
-9.958517
-9.956674
-9.95496
-9.953334
-9.951779
-9.950502
-9.949561
-9.948914
-9.948506
-9.948284
-9.948219
-9.948388
-9.94875
-9.949238
-9.94979
-9.950375
-9.950917
-9.951444
-9.951924
-9.952325
-9.952657
-9.952903
-9.953057
-9.953138
-9.953162
-9.952943
-9.96394
-9.964493
-9.965055
-9.965134
-9.965581
-9.966017
-9.966331
-9.966388
-9.966134
-9.965574
-9.964728
-9.963637
-9.962269
-9.960626
-9.958808
-9.956975
-9.955263
-9.953556
-9.951843
-9.950342
-9.94916
-9.948287
-9.947725
-9.947433
-9.947378
-9.947566
-9.947946
-9.948474
-9.949088
-9.949761
-9.950439
-9.951096
-9.951686
-9.952191
-9.952615
-9.952928
-9.953123
-9.953233
-9.953259
-9.953008
-9.964043
-9.964481
-9.964613
-9.964746
-9.965236
-9.965689
-9.966052
-9.966163
-9.965969
-9.965453
-9.964627
-9.96357
-9.96229
-9.960737
-9.958995
-9.957222
-9.955518
-9.953798
-9.952022
-9.950375
-9.94903
-9.948013
-9.947339
-9.94698
-9.946897
-9.947048
-9.947419
-9.947995
-9.948701
-9.949485
-9.950279
-9.951041
-9.951729
-9.952315
-9.952797
-9.953141
-9.953358
-9.953465
-9.953444
-9.953161
-9.96383
-9.963797
-9.963941
-9.964378
-9.964797
-9.965248
-9.965619
-9.96575
-9.965596
-9.965145
-9.964358
-9.963329
-9.962141
-9.960732
-9.959075
-9.957375
-9.955721
-9.954052
-9.952269
-9.950531
-9.949069
-9.947963
-9.947221
-9.946813
-9.946688
-9.946801
-9.947168
-9.947781
-9.948562
-9.94943
-9.950312
-9.951156
-9.951919
-9.952572
-9.953102
-9.953466
-9.953687
-9.953766
-9.953705
-9.95348
-9.962953
-9.963229
-9.96353
-9.963895
-9.964281
-9.964701
-9.965059
-9.965186
-9.965048
-9.964637
-9.963929
-9.96295
-9.961822
-9.960552
-9.959026
-9.957427
-9.955874
-9.954286
-9.952559
-9.95079
-9.949256
-9.948098
-9.94732
-9.946883
-9.946726
-9.946806
-9.947156
-9.947789
-9.94863
-9.949567
-9.950515
-9.951414
-9.952222
-9.952911
-9.953471
-9.953841
-9.954062
-9.954104
-9.954004
-9.953867
-9.96258
-9.962984
-9.963097
-9.96342
-9.963746
-9.964121
-9.964451
-9.964553
-9.96441
-9.964021
-9.963372
-9.962472
-9.96137
-9.960178
-9.958859
-9.957396
-9.955954
-9.954458
-9.952848
-9.951139
-9.949605
-9.948423
-9.947638
-9.947205
-9.947043
-9.947092
-9.947405
-9.948053
-9.948932
-9.949924
-9.950917
-9.951836
-9.952643
-9.95333
-9.953905
-9.954289
-9.954508
-9.954529
-9.95441
-9.954315
-9.962319
-9.962754
-9.962735
-9.962998
-9.963264
-9.963589
-9.963873
-9.963934
-9.963771
-9.96338
-9.96276
-9.961927
-9.960825
-9.959689
-9.958592
-9.957303
-9.955966
-9.954582
-9.953127
-9.951564
-9.950096
-9.948918
-9.948145
-9.947746
-9.947633
-9.947685
-9.947925
-9.948547
-9.949456
-9.950484
-9.951488
-9.952386
-9.953147
-9.953795
-9.954372
-9.954779
-9.954996
-9.955009
-9.954881
-9.954778
-9.962109
-9.962569
-9.962445
-9.962656
-9.962871
-9.963149
-9.963376
-9.963377
-9.96318
-9.962762
-9.962143
-9.961331
-9.96025
-9.959167
-9.95825
-9.957139
-9.95593
-9.954678
-9.953389
-9.952038
-9.950697
-9.949578
-9.948808
-9.948435
-9.948411
-9.948592
-9.948822
-9.949347
-9.950241
-9.951239
-9.95219
-9.953036
-9.95373
-9.954321
-9.954878
-9.955284
-9.955478
-9.955456
-9.955312
-9.955246
-9.962006
-9.962482
-9.962299
-9.962433
-9.962597
-9.962812
-9.962958
-9.962889
-9.962645
-9.962181
-9.961532
-9.960708
-9.959673
-9.958644
-9.957856
-9.956902
-9.955841
-9.95475
-9.953626
-9.952495
-9.951352
-9.950349
-9.94962
-9.949244
-9.949251
-9.949587
-9.950013
-9.95051
-9.951233
-9.95211
-9.952991
-9.953754
-9.954363
-9.954912
-9.955465
-9.955808
-9.955951
-9.955917
-9.955742
-9.955649
-9.961986
-9.962504
-9.962289
-9.962356
-9.962476
-9.962624
-9.962662
-9.962502
-9.962193
-9.961671
-9.960963
-9.960111
-9.959111
-9.958132
-9.957415
-9.956591
-9.955691
-9.954777
-9.953834
-9.952907
-9.952007
-9.951166
-9.950533
-9.950184
-9.950176
-9.950539
-9.951147
-9.951749
-9.952347
-9.953035
-9.95381
-9.954471
-9.955002
-9.95554
-9.956063
-9.956323
-9.95643
-9.956424
-9.956292
-9.956166
-9.962086
-9.962635
-9.962383
-9.962424
-9.96253
-9.962645
-9.962564
-9.962283
-9.96189
-9.961262
-9.960471
-9.959592
-9.958612
-9.957659
-9.956945
-9.956219
-9.955467
-9.954734
-9.954006
-9.953276
-9.952599
-9.951972
-9.951477
-9.951204
-9.9512
-9.951521
-9.952182
-9.952826
-9.953495
-9.95403
-9.954674
-9.955232
-9.955683
-9.956152
-9.956592
-9.956815
-9.95691
-9.956912
-9.956816
-9.956662
-9.962303
-9.962787
-9.96251
-9.962591
-9.962718
-9.962843
-9.962636
-9.962249
-9.961714
-9.960942
-9.960085
-9.959196
-9.95823
-9.95727
-9.95648
-9.955809
-9.95518
-9.954607
-9.954088
-9.953591
-9.953123
-9.95272
-9.952387
-9.952211
-9.952239
-9.95251
-9.953071
-9.953779
-9.954466
-9.95505
-9.955616
-9.956093
-9.956441
-9.956726
-9.957038
-9.957244
-9.957334
-9.95732
-9.95718
-9.956908
-9.962516
-9.962837
-9.962633
-9.962808
-9.962965
-9.963061
-9.962786
-9.962323
-9.96162
-9.960758
-9.9599
-9.959013
-9.95805
-9.957059
-9.956128
-9.955371
-9.954832
-9.954412
-9.954083
-9.953817
-9.953567
-9.953364
-9.953222
-9.953153
-9.953221
-9.953452
-9.953871
-9.954484
-9.955187
-9.955804
-9.956302
-9.956719
-9.957057
-9.95724
-9.957383
-9.957549
-9.957628
-9.957568
-9.957325
-9.956898
-9.96272
-9.962952
-9.962848
-9.963081
-9.963261
-9.963279
-9.962972
-9.962468
-9.961756
-9.96094
-9.960064
-9.959116
-9.958106
-9.957073
-9.956069
-9.955161
-9.954513
-9.954165
-9.953995
-9.953938
-9.953917
-9.953903
-9.953927
-9.953994
-9.95411
-9.954319
-9.954636
-9.955078
-9.955618
-9.956172
-9.956663
-9.957082
-9.957376
-9.957589
-9.957647
-9.957732
-9.9578
-9.957697
-9.957406
-9.957012
-9.963047
-9.963216
-9.963259
-9.963511
-9.963691
-9.963674
-9.963415
-9.962939
-9.962262
-9.961415
-9.960436
-9.959378
-9.958283
-9.957198
-9.956175
-9.955257
-9.95451
-9.954046
-9.953891
-9.953962
-9.95414
-9.954326
-9.9545
-9.954684
-9.954878
-9.955084
-9.955336
-9.955653
-9.956036
-9.956461
-9.956877
-9.957232
-9.957495
-9.95771
-9.957794
-9.957798
-9.957863
-9.957747
-9.957493
-9.957158
-9.96357
-9.963732
-9.963861
-9.96412
-9.964329
-9.964349
-9.964095
-9.963587
-9.962859
-9.961942
-9.960875
-9.95972
-9.958536
-9.957388
-9.956336
-9.955425
-9.954695
-9.954188
-9.953944
-9.953983
-9.954256
-9.954606
-9.954933
-9.95522
-9.955481
-9.955713
-9.955928
-9.956152
-9.956399
-9.956682
-9.956988
-9.957263
-9.957509
-9.957652
-9.957828
-9.957815
-9.957806
-9.957748
-9.957576
-9.957377
-9.964152
-9.964317
-9.96448
-9.964751
-9.964986
-9.965012
-9.964738
-9.964198
-9.963427
-9.96246
-9.961328
-9.960088
-9.958821
-9.957612
-9.95653
-9.955622
-9.954919
-9.954437
-9.954182
-9.954162
-9.954377
-9.954785
-9.955229
-9.955616
-9.955929
-9.956179
-9.956377
-9.956536
-9.956678
-9.956825
-9.957006
-9.957195
-9.957371
-9.957558
-9.957705
-9.957782
-9.957748
-9.957705
-9.957705
-9.957671
-9.96459
-9.96473
-9.964936
-9.965249
-9.965496
-9.965493
-9.965191
-9.964631
-9.96384
-9.962851
-9.961682
-9.960387
-9.959067
-9.957823
-9.95673
-9.955835
-9.955163
-9.95472
-9.954495
-9.954472
-9.954634
-9.954968
-9.955439
-9.955901
-9.956265
-9.956519
-9.95669
-9.956796
-9.956856
-9.956895
-9.956941
-9.957022
-9.957126
-9.957266
-9.957478
-9.957646
-9.957733
-9.957722
-9.95777
-9.957641
-9.964681
-9.964802
-9.965107
-9.965489
-9.965753
-9.965739
-9.965426
-9.964855
-9.964061
-9.963064
-9.961876
-9.960562
-9.959235
-9.957996
-9.956919
-9.956053
-9.955422
-9.955026
-9.954842
-9.95484
-9.954989
-9.955258
-9.95564
-9.956113
-9.956513
-9.956772
-9.956908
-9.956958
-9.956944
-9.956898
-9.956843
-9.956805
-9.956809
-9.956874
-9.957057
-9.957357
-9.957583
-9.957677
-9.957672
-9.957483
-9.964373
-9.964509
-9.964893
-9.965406
-9.965693
-9.965702
-9.965409
-9.964858
-9.964075
-9.963078
-9.961891
-9.960596
-9.959304
-9.958108
-9.957077
-9.956259
-9.95568
-9.955336
-9.955201
-9.955235
-9.955395
-9.955635
-9.95592
-9.956289
-9.956693
-9.956956
-9.957063
-9.957055
-9.956977
-9.956857
-9.956728
-9.95661
-9.956529
-9.956511
-9.956604
-9.956893
-9.957291
-9.957664
-9.957848
-9.957664
-9.963742
-9.9639
-9.964429
-9.965018
-9.965322
-9.965362
-9.965108
-9.964607
-9.963865
-9.962886
-9.96172
-9.960472
-9.95925
-9.958132
-9.957176
-9.956428
-9.955912
-9.955627
-9.955543
-9.955618
-9.955806
-9.956055
-9.956308
-9.95653
-9.956826
-9.957079
-9.95717
-9.95712
-9.956989
-9.956814
-9.95663
-9.956462
-9.956327
-9.956242
-9.956238
-9.956423
-9.956864
-9.957443
-9.957947
-9.957809
-9.962856
-9.963069
-9.963638
-9.964295
-9.96463
-9.964717
-9.964522
-9.964088
-9.963395
-9.962457
-9.961345
-9.960175
-9.95905
-9.95804
-9.957189
-9.956534
-9.956097
-9.955877
-9.955848
-9.955965
-9.95618
-9.956443
-9.956698
-9.956893
-9.957006
-9.957182
-9.957264
-9.957189
-9.957017
-9.956808
-9.956592
-9.956397
-9.956235
-9.956115
-9.95606
-9.956127
-9.956455
-9.957018
-9.957712
-9.957842
-9.961732
-9.961995
-9.962554
-9.963254
-9.963615
-9.963762
-9.963636
-9.96327
-9.96264
-9.961769
-9.96075
-9.959692
-9.958688
-9.957808
-9.957087
-9.956548
-9.956209
-9.956067
-9.956097
-9.956261
-9.956507
-9.956783
-9.957039
-9.95723
-9.957293
-9.957315
-9.957365
-9.957289
-9.957102
-9.956871
-9.956642
-9.956446
-9.956288
-9.956177
-9.956115
-9.956118
-9.956293
-9.956669
-9.957336
-9.957744
-9.960406
-9.960683
-9.961233
-9.961928
-9.962294
-9.962492
-9.962428
-9.962128
-9.961577
-9.960813
-9.959923
-9.959009
-9.958155
-9.957422
-9.956847
-9.956447