/*--------------------------------*- C++ -*----------------------------------*\
| =========                 |                                                 |
| \\      /  F ield         | OpenFOAM: The Open Source CFD Toolbox           |
|  \\    /   O peration     | Version:  2212                                  |
|   \\  /    A nd           | Website:  www.openfoam.com                      |
|    \\/     M anipulation  |                                                 |
\*---------------------------------------------------------------------------*/
FoamFile
{
    version     2.0;
    format      ascii;
    arch        "LSB;label=32;scalar=64";
    class       volScalarField;
    location    "3000";
    object      p_rgh;
}
// * * * * * * * * * * * * * * * * * * * * * * * * * * * * * * * * * * * * * //

dimensions      [1 -1 -2 0 0 0 0];

internalField   nonuniform List<scalar> 
96000
(
4.983046
4.980928
4.978314
4.97556
4.973923
4.973514
4.974094
4.97492
4.975695
4.976631
4.97834
4.980489
4.982335
4.984152
4.986107
4.988062
4.989797
4.991085
4.991769
4.991908
4.991865
4.991844
4.991813
4.991765
4.991827
4.99195
4.991967
4.991984
4.992123
4.992201
4.992115
4.991923
4.9917
4.991498
4.991303
4.991132
4.990938
4.990744
4.99105
4.991221
4.982012
4.982007
4.978929
4.976407
4.975113
4.974877
4.975254
4.975659
4.976128
4.976904
4.978474
4.980516
4.982292
4.984102
4.986116
4.988148
4.989976
4.991442
4.992319
4.992483
4.992109
4.991533
4.991364
4.991625
4.992109
4.992423
4.992475
4.992502
4.992604
4.992654
4.992579
4.992418
4.992244
4.992051
4.991808
4.991589
4.991383
4.991258
4.991521
4.991516
4.98226
4.981934
4.979829
4.977922
4.977252
4.977153
4.977038
4.976936
4.977085
4.977712
4.978967
4.980621
4.982248
4.983984
4.985971
4.988001
4.989885
4.991539
4.992752
4.993306
4.993241
4.992901
4.992792
4.992941
4.993154
4.993252
4.993235
4.99322
4.993217
4.993112
4.992904
4.992642
4.992392
4.992151
4.991926
4.991776
4.991629
4.991582
4.991747
4.991554
4.982258
4.982325
4.980829
4.979168
4.97862
4.978204
4.977832
4.97755
4.977499
4.977909
4.978919
4.980448
4.98212
4.983844
4.985794
4.987796
4.989683
4.991393
4.992762
4.993522
4.993625
4.993385
4.993266
4.993381
4.993559
4.993667
4.993692
4.993696
4.993641
4.99347
4.993198
4.99289
4.99259
4.992327
4.992118
4.991983
4.991839
4.991783
4.991997
4.991846
4.981922
4.982473
4.981176
4.979697
4.97919
4.978748
4.978351
4.977985
4.977802
4.978024
4.978771
4.980113
4.981877
4.983678
4.985571
4.987531
4.989384
4.991108
4.992545
4.993418
4.99364
4.993513
4.993484
4.993663
4.993863
4.993908
4.993869
4.993861
4.993781
4.993574
4.993265
4.992933
4.992617
4.992346
4.992147
4.992046
4.991996
4.992022
4.992265
4.992127
4.980215
4.980165
4.979911
4.98
4.979769
4.97938
4.978985
4.97851
4.978153
4.978221
4.978777
4.979882
4.98162
4.983547
4.985304
4.987196
4.989067
4.990831
4.992363
4.993372
4.993757
4.993811
4.993881
4.994044
4.994133
4.994019
4.993916
4.993864
4.993749
4.993512
4.993166
4.992781
4.992421
4.992131
4.99195
4.99193
4.992019
4.99217
4.992387
4.992194
4.980136
4.980363
4.980887
4.980836
4.980543
4.980192
4.979807
4.979206
4.978651
4.978543
4.978964
4.979842
4.981357
4.983222
4.9849
4.986814
4.988739
4.990539
4.992172
4.993352
4.993912
4.99418
4.994341
4.994437
4.994343
4.994038
4.993808
4.993688
4.993543
4.993283
4.992907
4.992493
4.992113
4.991814
4.991665
4.991743
4.991999
4.992316
4.992468
4.99211
4.980983
4.981435
4.981756
4.981604
4.981378
4.9811
4.980737
4.98
4.979251
4.978974
4.979251
4.979954
4.981055
4.982581
4.98445
4.986472
4.98843
4.990243
4.991948
4.993313
4.994124
4.994578
4.994834
4.994882
4.994599
4.994022
4.993539
4.993365
4.993176
4.992904
4.99252
4.992108
4.991736
4.991427
4.991309
4.991524
4.992006
4.992556
4.992566
4.991963
4.981823
4.98208
4.982433
4.982349
4.982218
4.982036
4.981686
4.980804
4.979877
4.979443
4.979576
4.980111
4.980714
4.981943
4.984113
4.986192
4.98813
4.989912
4.991632
4.993129
4.994209
4.99484
4.995252
4.995356
4.995061
4.99423
4.9932
4.992784
4.992632
4.992409
4.992048
4.991667
4.991287
4.990952
4.990866
4.991239
4.991983
4.992684
4.992775
4.991958
4.982555
4.982651
4.983018
4.983003
4.982966
4.982888
4.982545
4.981532
4.98045
4.97987
4.979855
4.980167
4.980449
4.981543
4.98391
4.985978
4.987856
4.989563
4.99122
4.992762
4.994029
4.994888
4.99541
4.995647
4.995463
4.9947
4.993265
4.992208
4.992034
4.991858
4.991518
4.991187
4.990773
4.990412
4.990358
4.99082
4.991563
4.992186
4.992823
4.992086
4.983036
4.983023
4.983375
4.983441
4.983482
4.983465
4.983087
4.981994
4.980813
4.98011
4.979957
4.980098
4.980356
4.981412
4.983776
4.985801
4.987601
4.989219
4.990755
4.992238
4.993555
4.994577
4.995217
4.995478
4.995322
4.994733
4.993458
4.992103
4.991606
4.991366
4.991076
4.990695
4.990246
4.989904
4.989918
4.990372
4.990911
4.991493
4.992366
4.992188
4.983108
4.983021
4.983441
4.983655
4.983771
4.983759
4.983271
4.982094
4.980862
4.980109
4.979905
4.980046
4.980432
4.981477
4.983648
4.985631
4.987352
4.988871
4.990264
4.991603
4.992853
4.99389
4.994609
4.994906
4.994735
4.994128
4.993171
4.992187
4.99151
4.991025
4.990706
4.990285
4.989787
4.989457
4.989496
4.989884
4.990343
4.991005
4.99199
4.992074
4.98272
4.982732
4.98338
4.983768
4.984006
4.984013
4.983279
4.981933
4.980663
4.979931
4.979825
4.980123
4.980675
4.981668
4.983487
4.985405
4.987073
4.988508
4.989785
4.990956
4.992056
4.993008
4.993712
4.994077
4.993986
4.993389
4.992662
4.991903
4.991223
4.990651
4.990322
4.989879
4.989351
4.989037
4.989092
4.989451
4.989912
4.990648
4.991754
4.991548
4.982415
4.982634
4.983367
4.983789
4.984159
4.984228
4.983157
4.981623
4.980306
4.979692
4.979802
4.980313
4.981017
4.981934
4.983257
4.985005
4.986701
4.988124
4.989321
4.99035
4.991265
4.992069
4.992694
4.993065
4.99311
4.99276
4.992166
4.991549
4.990905
4.990444
4.990058
4.989662
4.98922
4.988861
4.988833
4.989176
4.98962
4.990323
4.991334
4.99088
4.982344
4.98267
4.983288
4.983669
4.984068
4.984045
4.982832
4.981225
4.979956
4.979602
4.979988
4.980697
4.981516
4.98237
4.983203
4.984393
4.986113
4.987668
4.988871
4.989805
4.990552
4.991177
4.99168
4.992006
4.992122
4.99201
4.991671
4.991253
4.990766
4.990423
4.990119
4.989721
4.989308
4.988938
4.988778
4.989106
4.989513
4.990105
4.990953
4.990631
4.982136
4.982342
4.982836
4.983251
4.983603
4.98327
4.982029
4.980739
4.980043
4.980119
4.980683
4.981464
4.982323
4.983155
4.98381
4.98436
4.985459
4.987075
4.988387
4.9893
4.98994
4.9904
4.990751
4.990998
4.991122
4.991128
4.991033
4.990838
4.990587
4.990349
4.990125
4.989844
4.989475
4.989121
4.988892
4.989156
4.989585
4.989963
4.990585
4.990111
4.981739
4.981879
4.982207
4.982538
4.982671
4.982228
4.981496
4.980966
4.980818
4.981063
4.981619
4.98236
4.983171
4.983966
4.984647
4.985127
4.985616
4.986588
4.98784
4.988792
4.989389
4.989756
4.989971
4.99011
4.990197
4.990241
4.990258
4.990253
4.990212
4.990174
4.990081
4.989895
4.989648
4.989307
4.989049
4.989098
4.98967
4.989651
4.989847
4.989508
4.981238
4.981361
4.981576
4.981787
4.981804
4.981497
4.981164
4.981031
4.981174
4.981588
4.982216
4.982969
4.983765
4.984552
4.985268
4.985827
4.986208
4.986658
4.987443
4.988276
4.988875
4.989203
4.989354
4.989401
4.989421
4.989453
4.989511
4.989602
4.989715
4.989836
4.989956
4.98989
4.989671
4.989445
4.989108
4.988892
4.989096
4.989069
4.988825
4.988493
4.980808
4.980937
4.981051
4.981146
4.981115
4.980907
4.980786
4.980885
4.981224
4.98177
4.982476
4.983276
4.984114
4.984942
4.985697
4.986306
4.98672
4.986992
4.987347
4.987904
4.988407
4.988728
4.98886
4.988875
4.988847
4.988845
4.988906
4.989033
4.989222
4.989452
4.989697
4.989821
4.989701
4.989411
4.989058
4.988648
4.988312
4.988239
4.987995
4.987474
4.980604
4.980767
4.980766
4.980743
4.980653
4.980493
4.980502
4.980743
4.981196
4.981817
4.982576
4.983434
4.984338
4.985221
4.986011
4.986641
4.987074
4.98732
4.987475
4.987717
4.988071
4.988333
4.98847
4.988482
4.988445
4.988426
4.988476
4.988607
4.988813
4.989076
4.989367
4.98961
4.989676
4.98945
4.989049
4.988522
4.987884
4.987436
4.987153
4.986802
4.980727
4.980915
4.980795
4.980648
4.980467
4.98032
4.980403
4.980717
4.98122
4.981879
4.982681
4.983593
4.984543
4.985458
4.986262
4.986894
4.987324
4.987568
4.987681
4.987746
4.987866
4.988053
4.98815
4.988188
4.988156
4.98814
4.988188
4.98832
4.988525
4.988784
4.989072
4.989339
4.989476
4.989402
4.989129
4.988588
4.987763
4.987089
4.986695
4.986525
4.981183
4.981376
4.981158
4.98086
4.980591
4.980439
4.980554
4.980887
4.981397
4.98207
4.9829
4.983835
4.984797
4.985709
4.986499
4.98711
4.987522
4.987752
4.987853
4.987888
4.987904
4.98793
4.987983
4.987969
4.987949
4.987935
4.987986
4.988118
4.988321
4.988568
4.988836
4.989092
4.989268
4.989275
4.989093
4.988705
4.98779
4.98699
4.986516
4.986323
4.981926
4.982106
4.98181
4.981379
4.981043
4.98086
4.980957
4.981268
4.981767
4.982442
4.983279
4.984206
4.985139
4.986012
4.986757
4.987324
4.987697
4.9879
4.987979
4.987995
4.988002
4.988025
4.988057
4.987952
4.987839
4.987791
4.987847
4.987971
4.988158
4.98838
4.98861
4.988825
4.988987
4.98904
4.988918
4.988687
4.987922
4.987224
4.98656
4.986245
4.98292
4.983094
4.98277
4.982229
4.981828
4.981586
4.981629
4.981889
4.98236
4.983025
4.983841
4.984727
4.985599
4.986398
4.987067
4.987563
4.987877
4.988035
4.988082
4.98807
4.988049
4.988065
4.988127
4.988145
4.987879
4.987682
4.987693
4.987816
4.987979
4.988166
4.98834
4.988488
4.988598
4.98864
4.988572
4.988348
4.987968
4.98765
4.986914
4.986209
4.984148
4.984342
4.984
4.983405
4.982938
4.982618
4.982591
4.982793
4.983222
4.983848
4.984608
4.985417
4.986198
4.986893
4.987458
4.987859
4.988092
4.988184
4.988183
4.988133
4.988074
4.988043
4.98807
4.988116
4.987991
4.987635
4.987517
4.987595
4.987733
4.987877
4.987996
4.988073
4.988126
4.988149
4.988137
4.988093
4.988
4.987831
4.987103
4.986115
4.985591
4.985831
4.985468
4.984853
4.984332
4.983945
4.983858
4.984004
4.984376
4.984931
4.985599
4.986297
4.986956
4.987519
4.987952
4.988234
4.988365
4.988374
4.988303
4.988197
4.98809
4.988009
4.987977
4.987968
4.987869
4.987579
4.987375
4.987347
4.987418
4.987504
4.987559
4.987577
4.987599
4.987625
4.987665
4.987781
4.987827
4.987647
4.986957
4.985923
4.987237
4.987527
4.987143
4.98652
4.985974
4.985554
4.985425
4.985519
4.985819
4.986275
4.986819
4.987377
4.987884
4.988291
4.98857
4.988709
4.988718
4.988621
4.988461
4.988279
4.988105
4.987965
4.98787
4.987788
4.987627
4.98737
4.987174
4.98709
4.987059
4.987053
4.987035
4.987006
4.987001
4.98701
4.987051
4.987231
4.987392
4.987158
4.986439
4.985435
4.989043
4.989393
4.988996
4.988381
4.987846
4.987421
4.987267
4.98731
4.987526
4.987863
4.988259
4.988651
4.988985
4.989216
4.989322
4.989299
4.989163
4.988942
4.988673
4.988393
4.988135
4.987918
4.987744
4.987586
4.987366
4.987093
4.986869
4.986737
4.98664
4.986529
4.986407
4.986325
4.986281
4.98625
4.986271
4.986491
4.986773
4.986589
4.985857
4.984799
4.990937
4.991373
4.990992
4.990416
4.989915
4.989505
4.989337
4.989332
4.989457
4.989662
4.989896
4.990108
4.990252
4.990294
4.990215
4.990016
4.989716
4.989349
4.988951
4.988558
4.988197
4.987888
4.987627
4.987395
4.987129
4.986819
4.986524
4.986297
4.986115
4.98591
4.985665
4.985496
4.98539
4.985315
4.985326
4.985593
4.985955
4.985849
4.985188
4.984192
4.992824
4.99339
4.993076
4.992576
4.992124
4.991743
4.991571
4.991523
4.99156
4.991631
4.991699
4.991724
4.991673
4.991518
4.991245
4.990861
4.990387
4.989858
4.989315
4.988793
4.988319
4.98791
4.98756
4.987255
4.986938
4.986552
4.986146
4.985784
4.985484
4.985191
4.984793
4.984503
4.984327
4.984229
4.984257
4.98459
4.985028
4.985024
4.984526
4.983636
4.994587
4.995321
4.995157
4.994768
4.994389
4.994055
4.993894
4.993816
4.993772
4.993717
4.993623
4.993465
4.99322
4.992868
4.9924
4.991825
4.991169
4.990472
4.989776
4.989118
4.988527
4.988016
4.987575
4.987174
4.986753
4.986238
4.985683
4.985166
4.98472
4.984333
4.983786
4.98338
4.983145
4.983051
4.983128
4.983523
4.984016
4.984114
4.983776
4.982856
4.996101
4.997035
4.997105
4.996873
4.996609
4.996354
4.996223
4.996128
4.996017
4.995851
4.995611
4.995283
4.994855
4.994313
4.993653
4.992887
4.992049
4.991183
4.990336
4.989547
4.988843
4.988233
4.987685
4.987136
4.986526
4.985834
4.98512
4.984441
4.983831
4.983336
4.982652
4.982166
4.98191
4.981853
4.98199
4.982429
4.98295
4.98311
4.98287
4.981919
4.99724
4.998425
4.998782
4.998757
4.998674
4.998541
4.998461
4.998366
4.998208
4.997954
4.997592
4.997118
4.996528
4.995814
4.994974
4.994026
4.993011
4.991983
4.990991
4.990077
4.989267
4.988535
4.987813
4.987042
4.986224
4.98539
4.98456
4.983747
4.982969
4.982302
4.981434
4.980903
4.980671
4.980673
4.980868
4.981346
4.981899
4.982125
4.982005
4.981065
4.9979
4.999441
5.00009
5.000296
5.000453
5.000498
5.000502
5.000434
5.000258
4.99995
4.999502
4.998917
4.998196
4.997336
4.996338
4.995224
4.994043
4.992854
4.991714
4.990662
4.989683
4.98872
4.987741
4.986758
4.985811
4.984918
4.984053
4.983201
4.982274
4.981344
4.980202
4.979628
4.979447
4.979524
4.979779
4.9803
4.98089
4.981199
4.981219
4.980232
4.998248
5.000145
5.001068
5.001453
5.001809
5.002056
5.002197
5.002215
5.002075
5.001762
5.001278
5.00063
4.999828
4.998862
4.997728
4.996449
4.99509
4.993726
4.992415
4.991153
4.98991
4.988676
4.987472
4.98633
4.985283
4.98432
4.983393
4.982479
4.981591
4.980458
4.979023
4.978388
4.978275
4.978443
4.978775
4.979346
4.979965
4.98036
4.98052
4.979346
4.998878
5.001063
5.002399
5.002883
5.003004
5.003098
5.003352
5.00355
5.003533
5.003291
5.002851
5.00222
5.001392
5.000337
4.99906
4.997615
4.996081
4.994535
4.993015
4.991514
4.990032
4.988591
4.987209
4.98591
4.984718
4.983637
4.982634
4.981639
4.980699
4.979581
4.977963
4.977228
4.9772
4.977467
4.977897
4.978528
4.979172
4.979649
4.979964
4.9786
5.000029
5.002452
5.004087
5.004684
5.004655
5.004467
5.004434
5.004488
5.004482
5.004365
5.004076
5.003549
5.002741
5.00162
5.000249
4.9987
4.997033
4.995315
4.993589
4.991904
4.990255
4.988655
4.987114
4.985653
4.984295
4.983056
4.981931
4.980894
4.979886
4.978761
4.97691
4.976055
4.976164
4.976559
4.977147
4.977864
4.978524
4.979058
4.979495
4.978214
5.00136
5.003487
5.004912
5.005556
5.005763
5.005775
5.005663
5.005472
5.005221
5.005032
5.004788
5.004308
5.003524
5.002446
5.001125
4.999594
4.997885
4.996042
4.994162
4.992355
4.990598
4.98887
4.987186
4.985583
4.984091
4.982721
4.981472
4.98033
4.979218
4.97794
4.976132
4.975447
4.97573
4.976154
4.976747
4.977453
4.97809
4.978616
4.979039
4.977975
5.002513
5.003994
5.004999
5.005713
5.006211
5.006488
5.006433
5.006084
5.005684
5.005404
5.005113
5.004632
5.003918
5.002979
5.001778
5.000328
4.998635
4.996717
4.994718
4.992794
4.990952
4.989151
4.987382
4.98569
4.984117
4.982676
4.981355
4.980111
4.978857
4.977324
4.975563
4.97503
4.97524
4.975557
4.976168
4.976907
4.977574
4.978132
4.978481
4.977812
5.003038
5.003753
5.004698
5.005486
5.005902
5.006006
5.005588
5.004726
5.004239
5.004184
5.004112
5.003813
5.003251
5.002416
5.001284
4.999871
4.998205
4.996325
4.994379
4.992486
4.990663
4.988894
4.987166
4.985516
4.983982
4.98258
4.981293
4.98007
4.97883
4.977377
4.975893
4.975458
4.975544
4.975825
4.976361
4.976997
4.977652
4.978214
4.978456
4.978087
4.977977
4.981272
4.976518
4.972458
4.970773
4.970426
4.971555
4.972994
4.974098
4.975434
4.97806
4.981121
4.983112
4.984833
4.986767
4.988687
4.990221
4.991053
4.991097
4.990693
4.990407
4.990359
4.990429
4.990602
4.990792
4.990749
4.99041
4.990249
4.99073
4.991228
4.991311
4.991197
4.991012
4.990812
4.990562
4.990264
4.989808
4.989452
4.990748
4.99129
4.984723
4.983371
4.978818
4.976486
4.975689
4.975575
4.976096
4.976483
4.9768
4.977536
4.979293
4.981458
4.983171
4.984955
4.987064
4.989137
4.990729
4.991868
4.992646
4.992812
4.992368
4.991524
4.991117
4.991506
4.992256
4.992486
4.992153
4.991905
4.992007
4.992332
4.992443
4.992379
4.992248
4.992049
4.991639
4.991225
4.991095
4.991262
4.991771
4.991741
4.983553
4.982425
4.980134
4.978839
4.978873
4.978868
4.978616
4.978454
4.97857
4.979094
4.980051
4.981378
4.982929
4.984722
4.986822
4.988905
4.990557
4.991944
4.993193
4.993977
4.994231
4.994152
4.99411
4.994187
4.994251
4.994116
4.993797
4.993547
4.993381
4.993219
4.992965
4.992674
4.992391
4.992079
4.991759
4.991588
4.991543
4.991607
4.991901
4.991613
4.983277
4.982169
4.980031
4.979317
4.979416
4.978971
4.978507
4.978325
4.978454
4.978851
4.979576
4.980703
4.98226
4.984219
4.98644
4.988529
4.990228
4.99168
4.993119
4.994222
4.994813
4.995066
4.995224
4.995347
4.995375
4.995305
4.995089
4.994793
4.994422
4.993986
4.993549
4.993139
4.99274
4.992332
4.991969
4.991773
4.9917
4.991749
4.992143
4.992113
4.983712
4.981478
4.97971
4.979575
4.979423
4.978764
4.97826
4.978074
4.978263
4.978665
4.979202
4.980129
4.981584
4.983517
4.98586
4.988118
4.989824
4.991297
4.992811
4.994101
4.994939
4.995458
4.995853
4.996127
4.996266
4.996213
4.995936
4.995524
4.995008
4.994426
4.993842
4.99329
4.9928
4.992369
4.992009
4.991801
4.991759
4.991892
4.992421
4.992506
4.978915
4.979109
4.979713
4.980299
4.979654
4.978963
4.978474
4.978241
4.978326
4.978673
4.979192
4.979965
4.981189
4.982927
4.985179
4.987603
4.989417
4.990896
4.992503
4.993978
4.995058
4.995797
4.996333
4.996668
4.996797
4.996708
4.996408
4.995926
4.995312
4.99461
4.993894
4.993229
4.992667
4.992231
4.991921
4.991773
4.991791
4.992035
4.992664
4.992679
4.979162
4.980154
4.98139
4.980896
4.980099
4.979481
4.979011
4.978737
4.978695
4.978901
4.979411
4.980133
4.981097
4.982531
4.984556
4.986991
4.988953
4.990473
4.992169
4.993778
4.995032
4.995931
4.996544
4.996893
4.996995
4.996914
4.996626
4.996095
4.995402
4.994608
4.993795
4.993051
4.99244
4.992008
4.991788
4.991753
4.991862
4.992226
4.992918
4.992514
4.980355
4.981158
4.982115
4.981427
4.980729
4.980174
4.979717
4.979406
4.97926
4.97935
4.979784
4.980493
4.981247
4.982373
4.98414
4.986423
4.988438
4.990085
4.991828
4.993501
4.994887
4.99588
4.996527
4.996843
4.996861
4.996789
4.996564
4.996025
4.995269
4.994408
4.993529
4.992736
4.992099
4.991665
4.991519
4.99168
4.991921
4.992374
4.992877
4.992074
4.980965
4.981546
4.982529
4.981981
4.981414
4.98092
4.98047
4.980122
4.979898
4.979898
4.980251
4.98089
4.981494
4.982421
4.983986
4.985969
4.987912
4.989663
4.991399
4.993072
4.994551
4.995655
4.996359
4.996672
4.996603
4.996345
4.996137
4.995681
4.994925
4.994023
4.993101
4.992288
4.991634
4.991174
4.991026
4.991357
4.991803
4.992253
4.992742
4.99169
4.981608
4.981964
4.98303
4.982538
4.98204
4.9816
4.981164
4.980782
4.980506
4.980446
4.980725
4.981262
4.981777
4.982589
4.983977
4.985655
4.987462
4.989172
4.990848
4.992488
4.993996
4.995204
4.996015
4.996425
4.996393
4.995918
4.995323
4.994917
4.994298
4.993425
4.992514
4.991701
4.991029
4.990535
4.990378
4.990808
4.991298
4.991692
4.992704
4.991801
4.982072
4.982235
4.983307
4.982979
4.982522
4.982118
4.981711
4.981329
4.981023
4.980934
4.981157
4.981603
4.982058
4.982808
4.984035
4.985468
4.987097
4.9887
4.990267
4.99182
4.993262
4.994485
4.995375
4.995875
4.995936
4.995475
4.994607
4.993792
4.993253
4.992585
4.991789
4.991002
4.990333
4.989879
4.989845
4.990416
4.990613
4.990956
4.99222
4.992383
4.981873
4.982017
4.983251
4.983277
4.982872
4.982478
4.98209
4.981735
4.98143
4.98132
4.981495
4.981882
4.982329
4.98305
4.984124
4.985379
4.986789
4.988215
4.989633
4.99106
4.992415
4.993575
4.994456
4.994993
4.995109
4.994706
4.993796
4.992629
4.992064
4.991613
4.990994
4.990267
4.989639
4.989296
4.989463
4.990022
4.989974
4.990299
4.991572
4.992043
4.981099
4.981601
4.983246
4.983548
4.983156
4.982719
4.982292
4.981968
4.981676
4.981475
4.98165
4.982083
4.982615
4.983331
4.984253
4.985341
4.986534
4.987746
4.989026
4.990309
4.991552
4.9926
4.993405
4.993923
4.994082
4.993799
4.992965
4.991682
4.990929
4.990535
4.990136
4.98954
4.989014
4.988839
4.989132
4.989481
4.98939
4.989703
4.99094
4.990895
4.981011
4.981884
4.983558
4.983744
4.983353
4.982827
4.982345
4.982033
4.981594
4.98127
4.981587
4.982186
4.982878
4.983657
4.984461
4.985377
4.986406
4.987412
4.988489
4.989607
4.990681
4.991626
4.992342
4.992804
4.992994
4.992873
4.99235
4.991447
4.990564
4.990172
4.9898
4.989291
4.988806
4.9886
4.98879
4.989043
4.988895
4.989097
4.99015
4.990241
4.981582
4.982573
4.983842
4.983779
4.983437
4.982841
4.982355
4.981936
4.98109
4.980932
4.981461
4.98225
4.983113
4.984011
4.984809
4.985547
4.98641
4.987318
4.988188
4.989053
4.989898
4.990687
4.991318
4.991724
4.99191
4.991892
4.991663
4.991208
4.990717
4.99072
4.990489
4.989886
4.989152
4.988601
4.988515
4.988866
4.988661
4.988783
4.989849
4.991056
4.981857
4.982451
4.983411
4.983545
4.983349
4.9828
4.982188
4.981342
4.980734
4.980864
4.981513
4.9824
4.98337
4.984351
4.985244
4.985943
4.986577
4.98734
4.988111
4.988745
4.989303
4.989864
4.990371
4.990722
4.990906
4.990942
4.990867
4.990687
4.99048
4.99043
4.99065
4.990729
4.990039
4.989071
4.988507
4.988699
4.988771
4.988892
4.990216
4.990511
4.981644
4.982072
4.982613
4.98292
4.982769
4.982248
4.981659
4.981132
4.980913
4.98114
4.981767
4.982642
4.983618
4.984618
4.985578
4.986374
4.986937
4.987438
4.988069
4.988601
4.988943
4.989244
4.989555
4.989823
4.989996
4.990078
4.990091
4.990053
4.98999
4.989974
4.990125
4.990484
4.990923
4.990126
4.988975
4.988602
4.989024
4.988891
4.989885
4.990349
4.981155
4.981598
4.98199
4.982311
4.982157
4.981654
4.981194
4.980951
4.98098
4.98131
4.981934
4.982776
4.983744
4.984768
4.985767
4.986635
4.98726
4.987659
4.988071
4.988518
4.988758
4.988857
4.988962
4.989093
4.989218
4.989315
4.989389
4.989448
4.9895
4.989551
4.989653
4.989795
4.990025
4.990661
4.989952
4.988702
4.988795
4.988631
4.988871
4.989174
4.980741
4.981298
4.981595
4.981759
4.981538
4.981063
4.980768
4.980743
4.980942
4.98133
4.981924
4.982743
4.983749
4.984836
4.985882
4.986788
4.987475
4.987898
4.988154
4.988464
4.98868
4.988673
4.988608
4.988596
4.988652
4.988736
4.988831
4.988948
4.98908
4.989201
4.989299
4.989354
4.989329
4.98942
4.989662
4.988921
4.988052
4.988291
4.988282
4.98729
4.980609
4.981377
4.981474
4.981422
4.981061
4.980612
4.980469
4.980596
4.980874
4.981254
4.981814
4.982668
4.983748
4.984893
4.985969
4.986885
4.987587
4.988054
4.988307
4.988465
4.988629
4.98862
4.988446
4.988306
4.988284
4.98835
4.988457
4.98859
4.988764
4.98894
4.989075
4.989153
4.989121
4.98898
4.988861
4.988702
4.987667
4.987099
4.986814
4.986104
4.980852
4.981852
4.981696
4.981355
4.980756
4.980375
4.980352
4.980551
4.980841
4.981214
4.981816
4.982739
4.983851
4.984995
4.98606
4.986957
4.987638
4.988102
4.988377
4.988509
4.988574
4.988577
4.988373
4.988134
4.988042
4.98809
4.988216
4.988362
4.988547
4.988751
4.988932
4.989057
4.98909
4.989001
4.988779
4.988416
4.987599
4.986676
4.986143
4.985782
4.981441
4.982608
4.982127
4.981376
4.980699
4.980409
4.980456
4.980677
4.980967
4.981369
4.982034
4.982983
4.984072
4.98517
4.986184
4.987034
4.987673
4.988102
4.988356
4.98848
4.988524
4.988506
4.988357
4.988024
4.987858
4.98789
4.988028
4.988206
4.988395
4.988603
4.988799
4.988956
4.989042
4.989022
4.988863
4.988465
4.987683
4.986661
4.985964
4.985529
4.982301
4.983467
4.982619
4.981686
4.981063
4.980796
4.980805
4.98098
4.981282
4.981745
4.982472
4.983413
4.984424
4.985435
4.986367
4.987143
4.98772
4.988099
4.988309
4.988395
4.988404
4.988383
4.988302
4.98805
4.987784
4.987803
4.98795
4.988138
4.988304
4.988479
4.988648
4.988787
4.988875
4.988891
4.988812
4.988534
4.987849
4.986955
4.985845
4.985219
4.983379
4.984425
4.983455
4.982427
4.98183
4.981505
4.981434
4.981541
4.981841
4.982362
4.983113
4.984008
4.984928
4.985815
4.986636
4.987315
4.987811
4.988125
4.988281
4.988318
4.988271
4.988195
4.988106
4.987987
4.987736
4.987612
4.987767
4.988018
4.988219
4.988348
4.988451
4.988526
4.988575
4.988596
4.98857
4.988378
4.987944
4.987332
4.986197
4.984953
4.984653
4.985595
4.984592
4.98356
4.982937
4.982521
4.982367
4.982425
4.982716
4.983243
4.983954
4.984762
4.985581
4.98634
4.987022
4.987582
4.987977
4.98821
4.988299
4.988275
4.988167
4.988028
4.987894
4.987775
4.987625
4.98738
4.987413
4.987656
4.987923
4.988102
4.988168
4.988141
4.988118
4.988135
4.988187
4.988158
4.987914
4.98748
4.986437
4.984789
4.986076
4.986979
4.985979
4.984994
4.984333
4.983845
4.983638
4.983661
4.983924
4.984399
4.98502
4.98571
4.986401
4.987027
4.987552
4.987968
4.988245
4.988379
4.988383
4.98828
4.9881
4.987896
4.987725
4.987577
4.987392
4.987178
4.987122
4.987261
4.987489
4.987675
4.987705
4.987592
4.987523
4.987521
4.98759
4.987739
4.987709
4.987373
4.98646
4.984741
4.987658
4.988523
4.987579
4.986654
4.985991
4.985476
4.985242
4.985233
4.98544
4.98582
4.986315
4.98686
4.987395
4.987866
4.988237
4.98849
4.988624
4.988636
4.988534
4.988338
4.988078
4.987811
4.987592
4.987402
4.987167
4.986947
4.986865
4.986915
4.987043
4.987152
4.987118
4.986954
4.986868
4.98684
4.986842
4.987073
4.987216
4.986978
4.986082
4.984337
4.989353
4.990199
4.98935
4.988508
4.987894
4.987389
4.987143
4.987092
4.987219
4.987481
4.987827
4.988204
4.988562
4.988855
4.989053
4.989142
4.989115
4.988981
4.988751
4.988445
4.9881
4.987769
4.98749
4.987252
4.986986
4.986748
4.986604
4.986561
4.986583
4.986579
4.986435
4.986225
4.986119
4.986044
4.985989
4.986244
4.98652
4.986432
4.985662
4.983677
4.991077
4.991967
4.991258
4.990535
4.990003
4.989529
4.989276
4.989177
4.989214
4.989344
4.989527
4.989722
4.98989
4.989993
4.990004
4.989911
4.989711
4.989413
4.989035
4.988605
4.988166
4.987768
4.987431
4.987169
4.9869
4.986621
4.986373
4.986187
4.986061
4.985923
4.985641
4.985359
4.985203
4.985066
4.984973
4.985283
4.985651
4.985649
4.984921
4.98292
4.992695
4.993783
4.993268
4.992692
4.992247
4.991814
4.991561
4.99142
4.991367
4.991363
4.99138
4.99139
4.991364
4.991271
4.991087
4.990802
4.990414
4.989937
4.989398
4.988834
4.988294
4.98783
4.987456
4.987197
4.98694
4.986563
4.98613
4.985741
4.98543
4.98514
4.984701
4.984317
4.984084
4.98389
4.983799
4.984229
4.984696
4.984806
4.984193
4.982588
4.994043
4.995558
4.995339
4.994907
4.994537
4.994158
4.993918
4.993747
4.993611
4.993479
4.993335
4.993166
4.992952
4.992667
4.992289
4.991806
4.991222
4.990562
4.98986
4.989162
4.988523
4.988004
4.987607
4.987296
4.98692
4.986356
4.985712
4.985103
4.984593
4.98416
4.983587
4.983107
4.982803
4.982595
4.982586
4.983134
4.983686
4.983936
4.983548
4.982023
4.994966
4.997197
4.997407
4.997108
4.9968
4.996477
4.99626
4.996066
4.995858
4.995612
4.995323
4.994991
4.994604
4.99414
4.993575
4.992898
4.992126
4.991299
4.990458
4.989647
4.988932
4.98837
4.987901
4.987372
4.986662
4.985832
4.985013
4.984244
4.983563
4.98299
4.982291
4.98177
4.981454
4.981306
4.981437
4.982048
4.982625
4.982938
4.982627
4.980822
4.995302
4.998639
4.999356
4.999221
4.998968
4.998684
4.998482
4.998271
4.998007
4.99767
4.997264
4.996793
4.996256
4.995635
4.994903
4.994063
4.993143
4.99219
4.991241
4.990348
4.989581
4.988912
4.988175
4.987244
4.986213
4.985207
4.984282
4.983415
4.982551
4.981759
4.980897
4.98039
4.980148
4.98012
4.98036
4.981006
4.981603
4.981987
4.981787
4.979857
4.9948
4.999775
5.001078
5.001187
5.000995
5.000722
5.000506
5.000278
4.999982
4.99959
4.999101
4.998521
4.997863
4.997125
4.9963
4.995359
4.994319
4.993226
4.992153
4.99116
4.990217
4.989174
4.987971
4.986716
4.98554
4.984452
4.983455
4.982541
4.981474
4.980501
4.979495
4.979039
4.978924
4.979032
4.979354
4.980034
4.980656
4.981144
4.981149
4.979174
4.993742
5.000496
5.002488
5.002906
5.002829
5.002598
5.002363
5.002109
5.001794
5.001374
5.000828
5.000176
4.999477
4.998724
4.997833
4.996724
4.995463
4.994156
4.992875
4.991628
4.990332
4.988942
4.987511
4.986112
4.984789
4.98354
4.982392
4.981377
4.980413
4.979292
4.978184
4.977759
4.977774
4.978017
4.978444
4.97917
4.979794
4.980358
4.980497
4.978071
4.992516
5.000924
5.003604
5.004296
5.004349
5.004239
5.004096
5.003871
5.003555
5.003114
5.002572
5.001936
5.001238
5.000371
4.999243
4.997869
4.996377
4.994858
4.993301
4.991735
4.9902
4.988679
4.987158
4.985653
4.984197
4.982782
4.981491
4.980358
4.979361
4.978198
4.977057
4.976549
4.976647
4.977022
4.977634
4.978446
4.97908
4.979691
4.979944
4.976915
4.993673
5.001688
5.004356
5.005147
5.00541
5.005526
5.00558
5.005515
5.005283
5.004881
5.004335
5.003638
5.002743
5.00158
5.000258
4.998788
4.997199
4.995532
4.993762
4.992009
4.990297
4.988643
4.987038
4.985456
4.983903
4.982415
4.981038
4.979748
4.978629
4.977638
4.976294
4.975628
4.975702
4.976147
4.977021
4.977919
4.97856
4.979188
4.979558
4.97696
4.997127
5.002712
5.004714
5.005416
5.005882
5.006262
5.006513
5.006568
5.006372
5.005944
5.00531
5.004443
5.003318
5.002138
5.000945
4.999565
4.998008
4.996285
4.994421
4.992602
4.990792
4.988995
4.987228
4.985527
4.983931
4.982436
4.980987
4.979526
4.978109
4.977091
4.976233
4.975962
4.976112
4.976194
4.976772
4.977612
4.978257
4.978881
4.979238
4.976789
5.000397
5.003271
5.004583
5.00543
5.006188
5.006735
5.006973
5.006765
5.00629
5.005717
5.005053
5.004198
5.003351
5.002584
5.001601
5.000365
4.998892
4.997102
4.995134
4.993246
4.991417
4.989579
4.987734
4.985949
4.984278
4.982746
4.981338
4.979871
4.978156
4.9765
4.975425
4.975182
4.975147
4.975086
4.976026
4.977102
4.977862
4.978617
4.979071
4.976919
5.001946
5.002577
5.003836
5.004732
5.005226
5.005399
5.004754
5.003031
5.001918
5.001949
5.002199
5.00223
5.002055
5.00161
5.000806
4.999642
4.998188
4.996416
4.99456
4.992773
4.990995
4.989221
4.987466
4.985776
4.984198
4.982752
4.981413
4.980035
4.978375
4.976622
4.975454
4.975214
4.975227
4.975467
4.976105
4.976774
4.977426
4.978096
4.978293
4.977766
4.976811
4.979254
4.971224
4.96725
4.966313
4.96665
4.96898
4.971311
4.973073
4.975029
4.978056
4.981186
4.983461
4.985453
4.987596
4.989641
4.990982
4.991236
4.990622
4.990073
4.990118
4.990522
4.990815
4.990893
4.99061
4.989766
4.988398
4.987217
4.987862
4.989333
4.990018
4.990167
4.990099
4.989878
4.989588
4.989179
4.988928
4.989523
4.99105
4.991128
4.984141
4.980866
4.977446
4.976752
4.976692
4.977058
4.977705
4.978163
4.978624
4.979421
4.980781
4.982401
4.98402
4.985905
4.988105
4.990199
4.991433
4.992062
4.992687
4.992987
4.992791
4.991876
4.991046
4.99158
4.99262
4.992518
4.991611
4.990776
4.990295
4.990514
4.990816
4.990927
4.99082
4.990767
4.990673