/*--------------------------------*- C++ -*----------------------------------*\
| =========                 |                                                 |
| \\      /  F ield         | OpenFOAM: The Open Source CFD Toolbox           |
|  \\    /   O peration     | Version:  2212                                  |
|   \\  /    A nd           | Website:  www.openfoam.com                      |
|    \\/     M anipulation  |                                                 |
\*---------------------------------------------------------------------------*/
FoamFile
{
    version     2.0;
    format      ascii;
    arch        "LSB;label=32;scalar=64";
    class       surfaceScalarField;
    location    "3000";
    object      phi;
}
// * * * * * * * * * * * * * * * * * * * * * * * * * * * * * * * * * * * * * //

dimensions      [1 0 -1 0 0 0 0];

oriented        oriented;

internalField   nonuniform List<scalar> 
281600
(
0.008016798
-0.02695315
0.01785173
0.02742829
-0.02116745
0.002202279
0.03108778
-0.02122414
0.01822283
0.02300631
-0.0264621
0.03511474
0.01157382
-0.03141518
0.04337463
0.001394052
-0.03373991
0.04439024
-0.004141244
-0.03188926
0.03780533
-0.007075144
-0.02786137
0.03099621
-0.01161068
-0.02355919
0.02806351
-0.01849205
-0.01920414
0.02585221
-0.02386261
-0.01425832
0.01923918
-0.02657053
-0.01005443
0.01221899
-0.02993484
-0.008035847
0.01073482
-0.03348971
-0.007525276
0.01039238
-0.0351117
-0.007784701
0.008682012
-0.0333329
-0.008607859
0.006108684
-0.02772533
-0.01016178
0.003941515
-0.0192134
-0.01239532
0.003430987
-0.0100229
-0.01483199
0.005296758
-0.002940459
-0.01643333
0.009151042
0.0008247267
-0.01644176
0.01272103
0.001472322
-0.01534614
0.01488227
-5.942303e-05
-0.01473316
0.01648351
-0.002292145
-0.0152963
0.01772202
-0.003798319
-0.01647458
0.01828207
-0.004975404
-0.01728259
0.01897269
-0.006924151
-0.01781314
0.02042902
-0.009631317
-0.01847045
0.02184102
-0.0120983
-0.01911003
0.02215914
-0.01371955
-0.01901759
0.02112393
-0.01409422
-0.01776798
0.01858471
-0.01362131
-0.01641084
0.01631303
-0.01265964
-0.01526784
0.01450158
-0.01116381
-0.01428169
0.01280663
-0.009174092
-0.01352653
0.01139494
-0.006254437
-0.01324527
0.009957869
-0.002293801
-0.01316369
0.008453252
0.001107482
-0.01271263
0.008152177
0.00529158
-0.01201855
0.006666998
-0.01028554
0.01448184
0.01240558
-0.02118802
-0.01774722
0.02781389
-0.01806318
-0.01720502
0.02777684
-0.02234974
0.002256817
0.01809713
-0.03003784
0.01423978
0.008707787
-0.03778135
0.01663384
0.002564742
-0.04103247
0.01412342
-9.502025e-05
-0.03946649
0.01064858
-0.002156543
-0.03610618
0.01034407
-0.006403349
-0.03208338
0.01243781
-0.01319032
-0.02736677
0.01430929
-0.01959642
-0.02110699
0.01234764
-0.02475279
-0.0150177
0.008976302
-0.03124483
-0.01142448
0.008599817
-0.03800178
-0.009540799
0.007493441
-0.04203667
-0.008449809
0.003531183
-0.04114227
-0.007856362
-0.002637372
-0.03541414
-0.008281493
-0.008364336
-0.02634945
-0.009826745
-0.01213588
-0.01618712
-0.01248861
-0.01282286
-0.007700874
-0.01580769
-0.009267728
-0.002950184
-0.0187956
-0.002365598
-0.003387438
-0.02064535
0.005935998
-0.006662417
-0.02071164
0.009634235
-0.009530904
-0.01941901
0.00758979
-0.009935311
-0.01722189
0.002028915
-0.00930404
-0.01541969
-0.001403842
-0.009274765
-0.01454932
-0.002148466
-0.009766127
-0.01429602
-0.002632916
-0.01060555
-0.01446455
-0.002888113
-0.01137605
-0.01423512
-0.003079796
-0.01140068
-0.01282672
-0.004106689
-0.01076751
-0.01127889
-0.005350705
-0.009382846
-0.009882651
-0.0067223
-0.007357272
-0.008897956
-0.007661123
-0.005094748
-0.00870618
-0.007710857
-0.002385291
-0.009220581
-0.007836742
0.001297179
-0.009457914
-0.009031548
0.005193132
-0.00868072
-0.01005155
0.007780229
-0.008058654
-0.008735237
-0.006822062
0.002590249
0.01263954
-0.006893361
-0.02627381
0.023588
-0.009116635
-0.01824694
0.02091611
-0.01513324
-0.003218421
0.01015786
-0.02473118
0.006486252
0.003235093
-0.03243274
0.002500733
0.001124199
-0.03505885
-0.00312787
0.0009940953
-0.0349109
-0.003990458
0.0001946401
-0.0333954
-0.001836818
-0.002820317
-0.03062196
0.001275094
-0.008085089
-0.02655238
0.003894866
-0.01402522
-0.02104127
0.005110237
-0.01996263
-0.0154231
0.005396505
-0.02726921
-0.01142526
0.006254896
-0.03522696
-0.00868391
0.006065326
-0.04086217
-0.006507484
0.002777181
-0.04169608
-0.004781377
-0.003003291
-0.03761321
-0.004176524
-0.008772643
-0.02990241
-0.004806724
-0.0131866
-0.02035483
-0.006730966
-0.01563008
-0.01177025
-0.009605735
-0.01484624
-0.006655988
-0.01241732
-0.01120773
-0.005910248
-0.01443379
-0.006505154
-0.00750526
-0.01492757
-0.003719314
-0.009141056
-0.01370652
-0.003539413
-0.009595936
-0.01139896
-0.004607004
-0.009427214
-0.009205611
-0.005396473
-0.009140593
-0.007400403
-0.006311931
-0.00831547
-0.005779045
-0.008143095
-0.007229978
-0.004623441
-0.009743207
-0.006525017
-0.003967388
-0.01001867
-0.005773617
-0.002867497
-0.0101464
-0.004864164
-0.001611517
-0.01039086
-0.003845632
-0.0003937511
-0.01061526
-0.002762802
0.0003921109
-0.01078333
-0.001504211
0.0003142068
-0.01104757
0.0005775157
-0.0005298298
-0.01207911
0.00351334
-0.001091414
-0.01312036
0.006600083
-0.000297572
-0.0132314
0.008322027
0.0004087511
-0.01187486
0.0003950199
-0.0008399171
0.009271166
0.007816803
-0.02286959
0.01671291
0.002510426
-0.01702279
0.01183985
-0.008033556
-0.0004073621
0.001437973
-0.01960078
0.006625831
-0.001998361
-0.02634378
-0.001517181
-0.00128655
-0.0293421
-0.005536731
0.0005215056
-0.03053705
-0.005636806
0.001344913
-0.03023774
-0.003794714
-4.980178e-05
-0.0284274
-0.0009568248
-0.003945817
-0.02512748
0.002035019
-0.009626992
-0.02035572
0.004351111
-0.01619138
-0.01502289
0.005346771
-0.02391636
-0.01055864
0.005917823
-0.03239285
-0.007045342
0.005879133
-0.03902462
-0.004066531
0.003320344
-0.04126664
-0.001782203
-0.001508112
-0.03862331
-0.0006241038
-0.006768164
-0.0322568
-0.0007384743
-0.01081223
-0.0234432
-0.001987534
-0.01377844
-0.01467738
-0.004291003
-0.01418577
-0.008717632
-0.006999515
-0.01137444
-0.00672074
-0.009293695
-0.007080052
-0.007315509
-0.0103153
-0.003880574
-0.008510613
-0.009627665
-0.002576283
-0.0092867
-0.007585406
-0.002524519
-0.009687072
-0.00491853
-0.003190026
-0.009760975
-0.002071308
-0.004454128
-0.009074507
0.0006267546
-0.006347983
-0.007730699
0.002801002
-0.008184744
-0.006415657
0.004413948
-0.009330684
-0.005286991
0.006056987
-0.009958569
-0.004441876
0.007612688
-0.01023923
-0.003969833
0.008939739
-0.01019798
-0.003639851
0.009642201
-0.0101559
-0.002762563
0.009336444
-0.01068841
-0.0005083329
0.008063416
-0.01198842
0.002606201
0.006790067
-0.0126411
0.005160325
0.006930604
-0.01182398
0.006633526
0.008415911
-0.0117406
0.008896883
-0.004164438
0.004564949
0.02063262
-0.01615408
0.006073043
0.01173944
-0.008088452
-0.00155369
-0.005673252
0.007751992
-0.007982419
-0.01709405
0.005702541
-0.006977259
-0.02290305
-0.003207708
-0.003590274
-0.02600798
-0.00582151
0.0001511571
-0.02770203
-0.005992434
0.002543615
-0.02788162
-0.004498972
0.002716793
-0.0265278
-0.002124665
0.0003425735
-0.02393367
0.0008790421
-0.004854391
-0.01994184
0.004274392
-0.01223164
-0.01480497
0.006510545
-0.02076722
-0.009664254
0.006903147
-0.02977903
-0.005220625
0.006412036
-0.03718524
-0.001405087
0.004016632
-0.04040243
0.001223362
-0.0004252484
-0.03895223
0.002432449
-0.005017615
-0.03385804
0.002348507
-0.008519717
-0.02611589
0.001171629
-0.01109666
-0.01766457
-0.001095179
-0.01172677
-0.01122198
-0.004048587
-0.009326289
-0.008172599
-0.006704062
-0.00547252
-0.00752864
-0.007978529
-0.002764656
-0.007682765
-0.007392543
-0.00177134
-0.007830776
-0.005107282
-0.001880084
-0.008176898
-0.001876126
-0.002097578
-0.008704527
0.001589059
-0.002415408
-0.008723826
0.004753539
-0.003438682
-0.008104959
0.007396886
-0.004714174
-0.007296983
0.009565903
-0.005686444
-0.006648693
0.01160296
-0.006188458
-0.006409851
0.0134799
-0.006369192
-0.006676263
0.01502839
-0.006345982
-0.007052131
0.01573681
-0.006490149
-0.00651664
0.01512368
-0.00735658
-0.004102032
0.01329508
-0.009008775
-0.0002101905
0.01146142
-0.01038517
0.003466763
0.0113144
-0.01038765
0.005707321
0.01438036
-0.0108425
0.01559415
-0.00337967
-0.007995442
0.01102521
0.01894225
-0.01466526
0.002235761
0.01873088
-0.01806628
-0.01229376
0.01204836
-0.01526861
-0.01721077
-0.00109672
-0.01042911
-0.02056414
-0.005895892
-0.00497476
-0.02302374
-0.007376302
0.0004329626
-0.02473408
-0.007574257
0.004127869
-0.02509598
-0.005991438
0.005342473
-0.02402612
-0.003525703
0.004130174
-0.02206402
-0.0007112534
-3.869842e-05
-0.01889872
0.002872946
-0.007688198
-0.01411417
0.006576266
-0.01755523
-0.008255688
0.008026594
-0.02750872
-0.002757939
0.006986195
-0.03567506
0.001461413
0.004768328
-0.03969256
0.004211159
0.000551338
-0.03924048
0.00543651
-0.003865187
-0.03525214
0.00527366
-0.007220987
-0.02860628
0.004015605
-0.009731683
-0.02075895
0.001649844
-0.01080199
-0.01404052
-0.00155795
-0.009314658
-0.009789465
-0.004608991
-0.006328142
-0.007474215
-0.006198615
-0.003997279
-0.006066155
-0.005804348
-0.002821676
-0.005235251
-0.003467184
-0.00219575
-0.005384629
0.0001086028
-0.001467276
-0.006107452
0.003926445
-0.001180195
-0.006484541
0.007173209
-0.001646834
-0.006284857
0.009897904
-0.002483789
-0.005840115
0.01226307
-0.003135284
-0.005660562
0.01451203
-0.003327133
-0.006210195
0.01665678
-0.00313204
-0.00760537
0.01848003
-0.002830762
-0.009170843
0.0192615
-0.003005722
-0.009400576
0.01826579
-0.004240783
-0.007053244
0.01568624
-0.006395874
-0.002374561
0.01312085
-0.008415188
0.002744036
0.0128619
-0.009155352
0.005651552
0.01790528
-0.009091096
0.0195511
-0.0006357319
-0.01683723
0.0007800528
0.02843162
-0.02428745
-0.004945626
0.01695213
-0.02266237
-0.0119198
-0.0002388828
-0.01771331
-0.0145934
-0.005939774
-0.01200067
-0.017154
-0.007714334
-0.005422081
-0.01928431
-0.009038556
0.00135302
-0.02100882
-0.009426141
0.006080764
-0.02144901
-0.007590245
0.007912896
-0.02054309
-0.004838977
0.007333516
-0.01909603
-0.002157961
0.004107601
-0.01667204
0.001052787
-0.003068318
-0.01243188
0.005442203
-0.01388037
-0.006140057
0.008610098
-0.02502469
0.0002267693
0.007977523
-0.03389623
0.004134844
0.005949041
-0.03883143
0.007076044
0.001811783
-0.03944528
0.0084692
-0.002647602
-0.0365496
0.008218947
-0.006011902
-0.03104711
0.006823374
-0.008446232
-0.02406042
0.004303169
-0.009791337
-0.01730862
0.0007632366
-0.009153893
-0.01180991
-0.002759388
-0.007317353
-0.00755102
-0.004944174
-0.00538868
-0.004157878
-0.005067868
-0.003957728
-0.00195684
-0.002907048
-0.002565493
-0.001648975
0.001247614
-0.001302087
-0.002475642
0.005710286
-0.0007690799
-0.003037108
0.00897113
-0.0009924226
-0.003126224
0.01159465
-0.00158113
-0.0030198
0.01388952
-0.001963078
-0.003326647
0.01610974
-0.001790327
-0.004684886
0.01828969
-0.001069506
-0.007265486
0.02011893
-0.0001394824
-0.01023714
0.02084351
4.681697e-05
-0.01152875
0.0195265
-0.001579029
-0.009500597
0.01613306
-0.004422267
-0.004094928
0.01240251
-0.007087277
0.002661064
0.01170269
-0.008442635
0.006367327
0.01820937
-0.006926871
0.01989472
0.003562194
-0.02084674
-0.002272031
0.02533118
-0.02842777
-0.004745265
0.009792485
-0.02529368
-0.008244226
-0.004994599
-0.01952616
-0.01071499
-0.007952587
-0.0130463
-0.01294305
-0.009098396
-0.005398284
-0.01489072
-0.01051481
0.002681168
-0.01662131
-0.01108386
0.008229532
-0.01709999
-0.008794299
0.0103463
-0.01628486
-0.005587266
0.0100432
-0.01518765
-0.003056928
0.007491594
-0.01337624
-0.0003419951
0.00142217
-0.00977372
0.00373668
-0.009426736
-0.003580768
0.008570187
-0.02193689
0.002946926
0.009993888
-0.03167342
0.006407913
0.007504568
-0.03767824
0.009634966
0.003413761
-0.03949668
0.01129209
-0.001035451
-0.03778378
0.01120449
-0.004708373
-0.03346293
0.009773317
-0.007271818
-0.02741129
0.007182252
-0.008952894
-0.02073194
0.003471328
-0.009367622
-0.01425499
-0.0005180446
-0.008616369
-0.008176133
-0.003675055
-0.007168893
-0.002490691
-0.004983303
-0.00557389
0.001810887
-0.003738691
-0.003324933
0.003173729
0.0008062321
-0.001049558
0.002082176
0.00686022
-0.0003308788
0.001238607
0.01067419
-0.001006176
0.0008964536
0.01301141
-0.001349695
0.0006686625
0.01502686
-0.001477607
-0.0001328186
0.01698705
-0.0009376033
-0.002338845
0.01889892
0.0004311233
-0.006194787
0.02029681
0.002256379
-0.01077722
0.02055252
0.003262948
-0.01366951
0.01878269
0.001788684
-0.01235978
0.01469896
-0.002106089
-0.006276003
0.009744063
-0.006222919
0.002615283
0.008260689
-0.008810315
0.007436744
0.01401893
-0.004062284
0.01592182
0.008631767
-0.02320274
-0.002011039
0.02443151
-0.03174745
-0.002904223
0.009078769
-0.02781381
-0.004398547
-0.005969168
-0.02112585
-0.006319276
-0.009311018
-0.01382936
-0.008119383
-0.0103736
-0.005151893
-0.009882313
-0.01190397
0.004145022
-0.0116431
-0.0125624
0.01038672
-0.01224268
-0.009666985
0.0126121
-0.01156659
-0.005837006
0.012284
-0.01071659
-0.003250584
0.01013077
-0.009375951
-0.001058869
0.005140104
-0.006424203
0.002356035
-0.005417413
-0.001002127
0.00868762
-0.01880771
0.004922272
0.01202811
-0.02901925
0.008260169
0.00869083
-0.03584376
0.01161829
0.005049131
-0.03903678
0.01357882
0.001068134
-0.0387663
0.01398019
-0.002894006
-0.03571498
0.0128228
-0.005973722
-0.03072289
0.0104327
-0.008155902
-0.02441504
0.006976478
-0.009724177
-0.01752921
0.002934727
-0.01021637
-0.0102167
-0.0009170619
-0.009923318
-0.002536944
-0.003623411
-0.008893493
0.004572479
-0.00401298
-0.006744318
0.008411649
-0.0009374016
-0.002322812
0.007777643
0.00597175
0.001021157
0.0060862
0.01155802
0.0002025726
0.005273222
0.01399885
-0.0008546278
0.004705041
0.01574216
-0.00110983
0.003339547
0.01729718
-0.0002059445
0.00027595
0.01850083
0.001897084
-0.004956262
0.01903579
0.004725852
-0.01136984
0.01819402
0.006885363
-0.01628689
0.01529441
0.006334757
-0.01618959
0.01049433
0.001618412
-0.009657829
0.005469544
-0.005473664
0.0007218487
0.003791501
-0.009967254
0.008214875
0.005628157
-0.003532975
0.008211994
0.01250953
-0.02430947
0.0002104794
0.02352414
-0.03395103
-0.0003146457
0.009321549
-0.02993832
-0.0006165079
-0.005993916
-0.022519
-0.001721637
-0.01021882
-0.01449696
-0.002865362
-0.01140901
-0.004960172
-0.004202955
-0.01319282
0.005373316
-0.005894079
-0.01403937
0.0122783
-0.006761346
-0.010615
0.01461036
-0.006393665
-0.006066695
0.01407764
-0.005884332
-0.003040821
0.01204598
-0.005101646
-0.001045617
0.007719997
-0.003064852
0.002095544
-0.002139641
0.0009462147
0.009049798
-0.01567971
0.006037937
0.01336009
-0.0260823
0.009581479
0.00972003
-0.03353859
0.01286996
0.006679112
-0.03808371
0.01518576
0.003299158
-0.03925466
0.01613617
-0.0006796798
-0.03749061
0.01564977
-0.00434484
-0.03369453
0.01390917
-0.007097343
-0.02820532
0.0112474
-0.00962977
-0.02143202
0.007881826
-0.01162608
-0.01368468
0.004257761
-0.01287318
-0.004922866
0.00107157
-0.01349141
0.004475784
-0.0006804303
-0.012847
0.01191167
-0.000327974
-0.008333538
0.01353405
0.00395795
-0.000255105
0.01126929
0.01067074
0.002261476
0.009713602
0.01421528
0.0003183397
0.008755989
0.01569277
-0.0002879097
0.006759272
0.01649834
0.001218787
0.002559069
0.01682463
0.003974603
-0.004248744
0.01599737
0.007730157
-0.0124526
0.01344311
0.01075571
-0.01884762
0.00903542
0.01033435
-0.01905468
0.004083211
0.003830445
-0.01247886
0.0005186849
-0.005214747
-0.003317614
-0.0005210094
-0.009417836
0.006917221
-0.0003586158
-0.009389762
0.002045522
0.009147082
-0.02477116
0.003192917
0.02315918
-0.03531343
0.001848299
0.01046149
-0.03180986
0.0016733
-0.004072107
-0.02395747
0.001537352
-0.009357246
-0.01530919
0.001335129
-0.01095828
-0.005023854
0.0009759142
-0.01330771
0.00612684
-3.763043e-05
-0.01471273
0.01368456
-0.0008973158
-0.01133686
0.01622646
-0.0009186438
-0.006245726
0.01543221
-0.001054482
-0.002396832
0.01316812
-0.001233389
3.154756e-05
0.008912709
-0.0005679746
0.003338471
-0.0001746109
0.001795697
0.009744013
-0.01304814
0.006052966
0.01412599
-0.02305681
0.009917505
0.0106789
-0.03073759
0.01309737
0.00822301
-0.03620794
0.01584536
0.005394392
-0.03867371
0.01748384
0.001588279
-0.03833826
0.01799943
-0.002314079
-0.03575077
0.01720935
-0.005627313
-0.0313423
0.0155723
-0.00856753
-0.02528734
0.01329314
-0.01137954
-0.01760821
0.01054764
-0.01398388
-0.008335841
0.007684695
-0.01606738
0.002137357
0.005358067
-0.01693742
0.01220985
0.003672286
-0.01469578
0.01728463
0.003827201
-0.005845647
0.01611552
0.007985547
0.002739932
0.01362945
0.01227351
0.00313616
0.01158849
0.01395599
0.002211184
0.008917299
0.01377875
0.003539796
0.003665207
0.01285703
0.007021658
-0.004695556
0.01059152
0.0112857
-0.01408894
0.006871128
0.01341735
-0.02037515
0.002471568
0.01019307
-0.0191511
-0.001011998
0.0007248954
-0.01310024
-0.002809146
-0.006424534
-0.005652564
-0.003095204
-0.009283656
0.003475337
-0.001228335
-0.01330163
0.003661546
-0.002932085
-0.02503953
0.0027826
0.02669428
-0.03603567
0.000551838
0.01410359
-0.03300132
0.0006605419
-0.0004554335
-0.0249128
0.001880947
-0.006786532
-0.01573255
0.002883848
-0.008915894
-0.004763925
0.003914437
-0.0117573
0.006871851
0.004342275
-0.01365985
0.01482431
0.00403701
-0.01069077
0.01746506
0.0037316
-0.005326873
0.01621073
0.002748348
-0.0006200578
0.01336709
0.001281935
0.002310884
0.008856949
0.0003682396
0.005519896
0.0005809915
0.001193654
0.01074761
-0.01082268
0.004596359
0.01456244
-0.02003114
0.008779066
0.01179754
-0.02752694
0.01197192
0.009743706
-0.0335316
0.01521173
0.007485289
-0.03715511
0.01771124
0.004056815
-0.03812245
0.01928084
0.0002011146
-0.03665576
0.01966325
-0.003559246
-0.03328408
0.0190611
-0.006643187
-0.02814366
0.01779729
-0.009548009
-0.02107487
0.01592021
-0.01247018
-0.01182067
0.01348437
-0.01527184
-0.000693767
0.01077748
-0.01713433
0.01059199
0.007766086
-0.01638216
0.01835259
0.004270379
-0.009402781
0.01942918
0.003431252
0.00206953
0.01624015
0.005931886
0.007984099
0.0129766
0.007109486
0.008318702
0.009697024
0.006305271
0.008639027
0.00353253
0.004611333
0.01182893
-0.005911991
0.001872173
0.0152141
-0.01539786
-0.0008213854
0.01425948
-0.02039881
-0.002713187
0.007261435
-0.0181155
-0.003771492
-0.002755872
-0.01266708
-0.004476699
-0.007247081
-0.005919457
-0.004506906
-0.009394216
0.002441772
-0.001090514
-0.01344321
0.006233635
-0.005641671
-0.02559231
-0.002980667
0.03241785
-0.03630303
-0.004582984
0.01734095
-0.03282067
-0.002875086
0.001385856
-0.02431828
-4.377492e-05
-0.005086623
-0.01470524
0.002223085
-0.007239805
-0.00300836
0.004529879
-0.01020246
0.008631194
0.006350807
-0.01136623
0.01629826
0.006571582
-0.008069553
0.01831473
0.005896474
-0.002166134
0.01596018
0.003927952
0.003251096
0.0122285
0.001409684
0.005778666
0.007554683
-0.000556177
0.00785842
0.0004498145
-0.0008907079
0.01149337
-0.008809878
0.001476195
0.01462418
-0.0169203
0.005731355
0.01313694
-0.02392415
0.009133138
0.01139077
-0.03010003
0.01280508
0.00974429
-0.03458148
0.0162981
0.006775939
-0.03677448
0.01911469
0.003035082
-0.03654246
0.02084461
-0.0009320631
-0.03414012
0.02136656
-0.004415635
-0.02995482
0.02097327
-0.007240766
-0.02389256
0.01982998
-0.01001146
-0.01545557
0.01777102
-0.01294185
-0.004469559
0.0147137
-0.0154804
0.007454709
0.01067211
-0.01593213
0.01742413
0.004265825
-0.01149552
0.02092151
-0.002440089
0.0005902525
0.01790721
-0.004993637
0.01223617
0.01363518
-0.005972581
0.0154868
0.009963602
-0.00680712
0.01452992
0.003723443
-0.007983596
0.01611235
-0.005827199
-0.009301955
0.01774562
-0.01483619
-0.008905072
0.01423444
-0.01893636
-0.007028317
0.00552771
-0.01666008
-0.005548327
-0.003586874
-0.0119001
-0.005583933
-0.007007594
-0.005511133
-0.005861912
-0.008951423
0.003499459
-0.002834903
-0.01203123
0.003397168
0.001360265
-0.02474909
-0.008674017
0.03130088
-0.0341342
-0.008993646
0.01494336
-0.03003589
-0.005759483
-0.0001320151
-0.02179259
-0.00245094
-0.004493376
-0.01209375
0.0006579579
-0.006478253
0.0002848819
0.003793824
-0.009491197
0.01157325
0.005566432
-0.008227356
0.01816133
0.005430495
-0.003342664
0.01847361
0.003609461
0.004011824
0.01443754
0.0006884846
0.009426218
0.009882291
-0.002054607
0.01037242
0.005443621
-0.004020233
0.01044954
-2.302742e-05
-0.004733772
0.01201281
-0.006609848
-0.003302126
0.01415236
-0.01329184
0.0004585468
0.01454602
-0.01968844
0.004392107
0.01321972
-0.02583499
0.008449433
0.01206731
-0.03104489
0.01289483
0.009764686
-0.03437807
0.01714047
0.006149567
-0.03541703
0.02040527
0.002089378
-0.03415812
0.02232943
-0.001834954
-0.03096166
0.02289146
-0.004944139
-0.02604465
0.02242604
-0.007549981
-0.01912994
0.02084121
-0.01022405
-0.009823336
0.01785501
-0.01295714
0.001342128
0.0132996
-0.01484706
0.01133735
0.006400328
-0.01388622
0.01683449
-0.003462187
-0.006436382
0.01671193
-0.01170537
0.005000547
0.01497347
-0.01593047
0.009764631
0.01298236
-0.01780378
0.01085036
0.008518237
-0.01842351
0.01254465
-0.0002380825
-0.01799121
0.01494931
-0.010235
-0.01550837
0.0140546
-0.01588741
-0.01091739
0.0068074
-0.01494674
-0.007264308
-0.002250787
-0.01093665
-0.006599186
-0.006319282
-0.004864195
-0.007112854
-0.008556536
0.003753254
-0.005758312
-0.009986586
-0.001555833
0.004730587
-0.02223367
-0.01158541
0.02579855
-0.02991651
-0.0115423
0.01102873
-0.02576304
-0.008015702
-0.001060578
-0.01807773
-0.005687806
-0.003297347
-0.007860479
-0.002639251
-0.005317925
0.0046637
0.0005485236
-0.007106674
0.01493712
0.0007408513
-0.003141735
0.01955957
-0.001071315
0.003961072
0.01741111
-0.004470352
0.01221741
0.01216268
-0.007399763
0.01546809
0.007545698
-0.009160228
0.01411423
0.004070556
-0.01002051
0.01210389
0.0006839192
-0.01013968
0.01162937
-0.002995957
-0.009020575
0.01244143
-0.007761919
-0.006377045
0.01459972
-0.01406016
-0.002483975
0.01577991
-0.02041622
0.002214629
0.01466396
-0.02629349
0.007510279
0.01280637
-0.03080551
0.01316607
0.009565881
-0.03325602
0.01811049
0.005489119
-0.03336858
0.02167119
0.001255486
-0.0313551
0.02357367
-0.002458283
-0.02763359
0.02392578
-0.005228184
-0.02230584
0.02293034
-0.007666145
-0.01520434
0.02040562
-0.01015954
-0.006388851
0.01610619
-0.01257787
0.002459523
0.009986789
-0.0141239
0.008931929
0.001176003
-0.01311921
0.01200461
-0.008875268
-0.007977751
0.01373002
-0.01572759
-0.003854293
0.01468018
-0.01969313
-0.001095378
0.0136745
-0.02221046
0.002671058
0.008339326
-0.02252923
0.007672018
-0.001768201
-0.02000819
0.01230865
-0.01081409
-0.01474161
0.0103702
-0.01266957
-0.009156123
0.0008773993
-0.009826627
-0.007442471
-0.005162366
-0.004877118
-0.007073057
-0.008427898
0.002009145
-0.006124952
-0.01022057
-0.0008334859
-0.002150056
-0.01819169
-0.01588517
0.02291936
-0.02499897
-0.01787147
0.01356808
-0.02172126
-0.01476243
0.004022507
-0.01417426
-0.01308309
0.0007372449
-0.002938235
-0.01092124
-0.001587414
0.00879909
-0.009182377
-0.0001260095
0.01607807
-0.01071819
0.006077458
0.01776143
-0.01366868
0.01261376
0.01482662
-0.01638421
0.01659124
0.01048341
-0.01750129
0.01641517
0.006903415
-0.01737888
0.0140443
0.004457653
-0.01664395
0.01157703
0.002575773
-0.01561045
0.01009268
0.0007964471
-0.0141315
0.009841469
-0.001695346
-0.01213562
0.01128213
-0.006564924
-0.009330943
0.01458417
-0.013344
-0.005040462
0.01655034
-0.02001654
0.000693148
0.01548322
-0.02574182
0.007213057
0.01311406
-0.02978334
0.01376324
0.009313898
-0.0315724
0.01908058
0.004954182
-0.03107082
0.02262119
0.0007494814
-0.02866061
0.02424152
-0.002688417
-0.02476737
0.02408948
-0.005277123
-0.01955517
0.0222917
-0.007582996
-0.01315266
0.01878533
-0.00989858
-0.005985694
0.01360088
-0.01217897
0.0003859804
0.006872075
-0.01404984
0.005293258
-0.001570199
-0.01439645
0.009362092
-0.009669055
-0.01232177
0.0130297
-0.0155717
-0.009820452
0.01554004
-0.02003929
-0.006575058
0.01473668
-0.02270266
-0.0009664115
0.00834393
-0.0220745
0.006397574
-0.002345598
-0.01787817
0.01161881
-0.008510911
-0.01108323
0.005593526
-0.006996178
-0.007579421
-0.0041747
-0.002725765
-0.005184476
-0.009289154
0.003685197
-0.004027318
-0.01172542
-0.0001411399
9.348342e-05
-0.01426023
-0.02386292
0.02242507
-0.01950356
-0.02894287
0.0163621
-0.01722807
-0.02640875
0.009623275
-0.01054391
-0.02447829
0.005277641
-0.001073786
-0.02334287
0.003856113
0.007358065
-0.02317448
0.006750255
0.01197971
-0.02470208
0.01054898
0.0132892
-0.02649721
0.01280846
0.0120221
-0.02737259
0.01374905
0.009519319
-0.02675251
0.01350872
0.007063801
-0.02508167
0.01220674
0.005228121
-0.02293942
0.01046478
0.003882089
-0.02074124
0.009049449
0.002755913
-0.01859359
0.008335661
0.001493156
-0.01639934
0.008405007
-0.0008759864
-0.01382461
0.00975971
-0.005543053
-0.01043487
0.01275381
-0.01204475
-0.005786962
0.01533202
-0.01890115
0.0003635945
0.01550564
-0.02464562
0.007465978
0.01323156
-0.02833095
0.01435204
0.009099547
-0.02964535
0.01963836
0.004640883
-0.02886319
0.02285263
0.0006776727
-0.02642948
0.02398082
-0.002514091
-0.02275051
0.02318677
-0.005022895
-0.01809473
0.02068996
-0.007281038
-0.01267693
0.01665846
-0.009571252
-0.006809676
0.01135486
-0.01197319
-0.001188782
0.004999589
-0.01413759
0.004293477
-0.002191031
-0.01505224
0.00945752
-0.00928548
-0.01347576
0.01387771
-0.0147375
-0.01156669
0.01696721
-0.01856316
-0.008889167
0.01587177
-0.02066997
-0.001951905
0.007984876
-0.01871774
0.00690516
-0.002143766
-0.01265161
0.009646846
-0.003648333
-0.00516319
-0.003294352
-0.000806299
-0.000507389
-0.01028056
0.004096782
0.001748639
-0.01343924
0.004862995
-0.003315878
-0.01174164
-0.03383522
0.02169627
-0.01579872
-0.04134421
0.01617359
-0.01399639
-0.03851992
0.01025975
-0.008419613
-0.03560606
0.005774821
-0.0009543302
-0.03463683
0.004253392
0.005273823
-0.03491435
0.006128633
0.008871649
-0.03601223
0.008489957
0.01026163
-0.03674682
0.009878966
0.009774365
-0.03639827
0.01080411
0.008234951
-0.0346599
0.01102982
0.006572636
-0.03187059
0.01033898
0.005290449
-0.0285741
0.009104459
0.00440696
-0.02535806
0.007942846
0.003753885
-0.02248526
0.007149257
0.003152054
-0.0198047
0.006691083
0.002287559
-0.01693575
0.00670102
0.0002513578
-0.01361715
0.007888316
-0.004024007
-0.009708404
0.01064876
-0.01029116
-0.004939244
0.0136226
-0.01736146
0.0009989247
0.01501134
-0.02314768
0.007992735
0.01300222
-0.02655247
0.01466511
0.008769316
-0.0276616
0.01954988
0.004494079
-0.02692138
0.02219956
0.0008725682
-0.02474283
0.02270948
-0.002108815
-0.02150731
0.02136321
-0.004557684
-0.01745614
0.01854141
-0.006857518
-0.01266246
0.01455872
-0.009273793
-0.007308915
0.00969185
-0.01172437
-0.001698936
0.004047119
-0.01373093
0.004331914
-0.002295884
-0.01488929
0.01024514
-0.008354136
-0.01398962
0.01517645
-0.01305465
-0.01192488
0.01884353
-0.01591885
-0.009737816
0.01720285
-0.01667399
-0.001672259
0.008186248
-0.01330256
0.008151014
0.001669963
-0.004394613
0.003784533
0.002429451
0.003960652
-0.007504702
0.005361312
0.00781247
-0.0111721
0.009092333
-0.0006877174
-0.01070749
-0.04284703
0.01951077
-0.01369067
-0.05162313
0.01267055
-0.01186325
-0.04803796
0.007357506
-0.00714768
-0.0440089
0.003613113
-0.0009574702
-0.04250743
0.001764076
0.004188095
-0.04256153
0.002798668
0.007328798
-0.0431888
0.004542394
0.008827373
-0.04322791
0.005792484
0.008849542
-0.04213961
0.006847261
0.007970777
-0.0397307
0.007395978
0.006907671
-0.0363239
0.007277386
0.006076002
-0.03243377
0.006751737
0.005537982
-0.02868473
0.00617379
0.005157239
-0.02535751
0.00571737
0.004802345
-0.0222713
0.005339545
0.004420716
-0.01903835
0.00499328
0.003762825
-0.01548454
0.004989965
0.001923771
-0.0116788
0.006132321
-0.002139655
-0.007612939
0.008804942
-0.008429139
-0.00307561
0.01199444
-0.01569224
0.002334269
0.01395962
-0.0214309
0.008707755
0.01216808
-0.02469951
0.0148582
0.008041089
-0.02586032
0.01910022
0.00408333
-0.02531213
0.02102399
0.000753623
-0.0234618
0.02097664
-0.002043552
-0.02061894
0.01934717
-0.004428581
-0.01696548
0.01668304
-0.00678638
-0.01252637
0.01317401
-0.009212182
-0.007434281
0.008900824
-0.0115009
-0.001598554
0.003907577
-0.01362296
0.005038838
-0.00154765
-0.01488932
0.01181651
-0.006643842
-0.01440855
0.01777978
-0.01063858
-0.01224333
0.02163899
-0.01316576
-0.008245499
0.0191189
-0.01323427
0.001547481
0.01125837
-0.007827198
0.01004718
0.008677417
0.001914196
0.003154483
0.009422449
0.008180562
-0.002481502
0.005359756
0.01196525
-0.01052536
-0.04913829
0.01643195
-0.01221842
-0.05828041
0.007456862
-0.009973985
-0.05410622
0.003223743
-0.005695532
-0.04909044
0.0004887731
-0.0002600312
-0.04703926
-0.001077112
0.004197609
-0.04668978
-0.0002713968
0.00707456
-0.04676536
0.0009887082
0.008760045
-0.04620494
0.001926593
0.009299796
-0.04462224
0.002929129
0.009013693
-0.04191089
0.003791319
0.008401245
-0.03839576
0.004324783
0.007854755
-0.03448051
0.004509625
0.00747686
-0.03069293
0.004519177
0.007150315
-0.02725798
0.004501444
0.006793474
-0.02396923
0.004383692
0.006458843
-0.0204734
0.00406808
0.00615693
-0.01665007
0.003681055
0.005521571
-0.01271529
0.003746029
0.003684845
-0.008840308
0.004914725
-0.0002871825
-0.00487187
0.007285167
-0.006626629
-0.000602592
0.0103282
-0.01405348
0.004145953
0.01250323
-0.01984437
0.009957196
0.01076669
-0.02317905
0.01549971
0.006729316
-0.02440796
0.01889299
0.0029727
-0.02393668
0.02012673
-0.0001529223
-0.02220367
0.01965664
-0.002702801
-0.01957012
0.01815629
-0.004882868
-0.01612125
0.01591827
-0.007097974
-0.01190033
0.01297926
-0.009365182
-0.006852753
0.009284839
-0.01159895
-0.0005040953
0.00488251
-0.01385566
0.006953195
0.0002342415
-0.01518831
0.01461158
-0.004568712
-0.01429946
0.0217642
-0.009117525
-0.01158977
0.02556997
-0.0126793
-0.004741441
0.02239546
-0.01282492
0.007701599
0.01708941
-0.008763727
0.01535768
0.01229543
-0.004515201
0.01690065
-0.007629576
0.02484094
-0.01085362
-0.05240308
0.0135516
-0.01111909
-0.06129582
0.002083002
-0.00797347
-0.05654626
-0.001563361
-0.003619272
-0.05092699
-0.003042752
0.001219315
-0.04888104
-0.003402319
0.005120121
-0.04818912
-0.002553174
0.007866713
-0.0476601
-0.00173233
0.009789059
-0.04659271
-0.001041086
0.01075524
-0.04480753
7.93375e-05