/*--------------------------------*- C++ -*----------------------------------*\
| =========                 |                                                 |
| \\      /  F ield         | OpenFOAM: The Open Source CFD Toolbox           |
|  \\    /   O peration     | Version:  2212                                  |
|   \\  /    A nd           | Website:  www.openfoam.com                      |
|    \\/     M anipulation  |                                                 |
\*---------------------------------------------------------------------------*/
FoamFile
{
    version     2.0;
    format      ascii;
    arch        "LSB;label=32;scalar=64";
    class       volScalarField;
    location    "3000";
    object      T;
}
// * * * * * * * * * * * * * * * * * * * * * * * * * * * * * * * * * * * * * //

dimensions      [0 0 0 1 0 0 0];

internalField   nonuniform List<scalar> 
96000
(
299.8985
299.9355
299.9677
300.0393
300.0927
300.0958
300.0646
300.037
300.0257
300.0194
299.9946
299.9637
299.9509
299.9485
299.9483
299.9488
299.9507
299.9561
299.9686
299.9914
300.0156
300.0303
300.0407
300.0499
300.0497
300.0401
300.0297
300.0189
300.0076
299.9986
299.9921
299.986
299.9807
299.9769
299.9746
299.9743
299.9797
299.9932
299.9861
299.979
299.9242
299.8812
299.9447
300.0205
300.0513
300.0367
300.0104
299.998
299.9973
299.9972
299.9765
299.9478
299.9387
299.9385
299.9384
299.9389
299.942
299.9499
299.9662
299.9944
300.0342
300.0749
300.0897
300.0854
300.0705
300.0555
300.0447
300.0324
300.0172
300.0044
299.9941
299.984
299.9773
299.9742
299.9745
299.9776
299.9851
299.99
299.9777
299.979
299.906
299.8874
299.9295
299.9878
299.9924
299.9714
299.963
299.9668
299.9744
299.9754
299.9622
299.9436
299.9374
299.9375
299.936
299.9349
299.9366
299.9421
299.9542
299.9765
300.0093
300.0429
300.0588
300.0592
300.0541
300.048
300.0407
300.03
300.0163
300.0024
299.9912
299.9847
299.9814
299.9798
299.9803
299.9809
299.9843
299.986
299.9761
299.9896
299.8986
299.8585
299.8893
299.95
299.9488
299.9436
299.9425
299.9487
299.9606
299.9676
299.9615
299.9439
299.9332
299.9333
299.9327
299.9324
299.9354
299.9423
299.955
299.9768
300.0101
300.0474
300.0712
300.0771
300.0732
300.0653
300.0538
300.0374
300.0201
300.0059
299.9957
299.9887
299.9836
299.9791
299.9759
299.9759
299.9802
299.9804
299.9684
299.9803
299.9047
299.8418
299.8828
299.9466
299.9437
299.9402
299.9372
299.9436
299.9575
299.9688
299.9713
299.9578
299.9374
299.9309
299.9313
299.9322
299.9365
299.9442
299.9585
299.9834
300.0211
300.0619
300.0871
300.0929
300.0893
300.0849
300.0739
300.0524
300.0305
300.0125
299.9987
299.9871
299.9768
299.9677
299.9607
299.9577
299.9607
299.9617
299.9495
299.9602
299.96
299.9565
299.9696
299.9491
299.9392
299.9351
299.9316
299.9405
299.9584
299.9719
299.9793
299.9744
299.9486
299.9291
299.9314
299.9348
299.9385
299.9452
299.9586
299.9833
300.0201
300.0578
300.0829
300.0931
300.098
300.1032
300.0901
300.0646
300.039
300.0177
300.0013
299.9879
299.976
299.9652
299.9558
299.9492
299.9476
299.9469
299.937
299.9486
299.9947
299.9699
299.9461
299.9348
299.9309
299.9264
299.922
299.9344
299.958
299.975
299.9838
299.9856
299.9639
299.938
299.9402
299.9411
299.9414
299.9459
299.9568
299.979
300.0141
300.046
300.0695
300.0853
300.1028
300.1213
300.109
300.0815
300.0513
300.0261
300.0071
299.9921
299.9791
299.9673
299.9555
299.945
299.9386
299.9343
299.9272
299.9405
299.9726
299.9349
299.9288
299.9254
299.9212
299.915
299.909
299.9257
299.9555
299.9765
299.9874
299.9921
299.9827
299.9672
299.957
299.9483
299.9439
299.9458
299.9531
299.9696
299.9974
300.0244
300.0443
300.0623
300.0899
300.128
300.1285
300.0989
300.0651
300.0356
300.0137
299.9968
299.9813
299.9685
299.9553
299.9408
299.9281
299.9192
299.919
299.9349
299.9525
299.9239
299.92
299.9159
299.9098
299.9007
299.8938
299.9156
299.951
299.9765
299.9902
299.9967
300.0043
300.003
299.9738
299.9558
299.9475
299.9465
299.95
299.9598
299.9776
299.9996
300.0135
300.0262
300.0464
300.0882
300.1264
300.1122
300.0765
300.0427
300.0188
299.9995
299.9825
299.97
299.9556
299.9363
299.9174
299.9086
299.9133
299.9283
299.9379
299.9143
299.9108
299.9061
299.8978
299.8851
299.8781
299.9051
299.9454
299.9756
299.993
300.0058
300.0294
300.0339
299.9884
299.9639
299.9524
299.9485
299.9485
299.9525
299.9615
299.9752
299.9869
299.994
300.0031
300.0265
300.081
300.1057
300.0761
300.0422
300.0202
299.9987
299.9833
299.9719
299.9565
299.9354
299.9184
299.9138
299.905
299.9219
299.9279
299.9078
299.9052
299.8998
299.89
299.8764
299.8715
299.9023
299.9457
299.9805
300.0032
300.0239
300.0515
300.054
300.0019
299.9731
299.9587
299.9519
299.949
299.9488
299.9515
299.9576
299.9661
299.9744
299.9844
299.9931
300.0221
300.0619
300.0556
300.0309
300.0094
299.9935
299.9833
299.972
299.9548
299.9357
299.9224
299.9157
299.9016
299.9243
299.9283
299.9104
299.905
299.8963
299.8858
299.8743
299.8766
299.9134
299.9598
299.9973
300.0239
300.0454
300.0661
300.065
300.0164
299.9844
299.9671
299.9574
299.952
299.9489
299.9478
299.9491
299.9533
299.9615
299.9745
299.9867
299.9956
300.0115
300.0129
300.0069
299.9946
299.987
299.981
299.9677
299.9503
299.9338
299.9223
299.9107
299.8928
299.9153
299.9413
299.9194
299.9059
299.8905
299.8762
299.8644
299.8802
299.9289
299.9802
300.0212
300.0451
300.059
300.0697
300.0679
300.0326
299.9992
299.9783
299.9654
299.9572
299.9519
299.9483
299.9466
299.9473
299.9516
299.9625
299.9812
299.9844
299.9802
299.976
299.9774
299.9705
299.9673
299.9666
299.9586
299.9446
299.9306
299.9194
299.9045
299.8807
299.9033
299.9488
299.9203
299.9036
299.8847
299.8628
299.8442
299.8774
299.9413
300.002
300.0427
300.0589
300.0634
300.066
300.0641
300.0495
300.0207
299.9944
299.9764
299.9645
299.9567
299.9513
299.9477
299.946
299.9469
299.9526
299.9663
299.9752
299.9639
299.9543
299.9497
299.9437
299.9396
299.9415
299.9448
299.9386
299.9255
299.914
299.8989
299.8745
299.8998
299.9458
299.9175
299.9033
299.8832
299.8564
299.8362
299.8804
299.957
300.0232
300.0553
300.0601
300.057
300.0557
300.0562
300.0609
300.0534
300.0211
299.9932
299.975
299.9634
299.9558
299.9507
299.9473
299.9459
299.9473
299.9524
299.9607
299.9565
299.9433
299.9329
299.9259
299.921
299.9201
299.9262
299.9302
299.9178
299.906
299.8927
299.8727
299.9001
299.9451
299.9248
299.9132
299.8914
299.8646
299.8616
299.9196
299.981
300.0198
300.0337
300.0343
300.0324
300.0324
300.0361
300.0472
300.0634
300.0562
300.0195
299.991
299.9731
299.9619
299.9547
299.95
299.9471
299.9458
299.9461
299.9476
299.9477
299.9384
299.9264
299.9172
299.9125
299.9106
299.9114
299.9176
299.9099
299.8963
299.8891
299.8742
299.9062
299.9472
299.9319
299.9228
299.9057
299.8913
299.9034
299.9359
299.9613
299.9782
299.989
299.9956
300.0004
300.0056
300.0127
300.0231
300.0393
300.0542
300.0438
300.0125
299.9874
299.9706
299.9601
299.9536
299.9493
299.9465
299.9444
299.9424
299.9398
299.9354
299.924
299.9131
299.9085
299.9063
299.907
299.9092
299.9082
299.8903
299.8949
299.8924
299.916
299.9481
299.9331
299.9249
299.9125
299.9046
299.9125
299.9277
299.9404
299.9512
299.9604
299.9686
299.9767
299.9856
299.9949
300.0049
300.017
300.0317
300.0399
300.0274
300.004
299.9828
299.9676
299.9581
299.9521
299.9481
299.9448
299.9412
299.9367
299.9313
299.9241
299.9124
299.9056
299.9051
299.9052
299.9092
299.9131
299.9063
299.9075
299.916
299.9351
299.9458
299.9294
299.922
299.9128
299.907
299.9119
299.9211
299.9296
299.9375
299.9453
299.9535
299.9627
299.9727
299.9824
299.9916
300.0012
300.0123
300.0234
300.0266
300.0138
299.9951
299.9772
299.9638
299.9553
299.9499
299.9459
299.9419
299.9371
299.9311
299.9238
299.9145
299.9061
299.9039
299.9068
299.9108
299.9178
299.9262
299.9259
299.9314
299.951
299.9411
299.9228
299.9166
299.9099
299.9061
299.9103
299.9167
299.923
299.9295
299.9368
299.9451
299.9543
299.9637
299.9728
299.9812
299.9894
299.998
300.0073
300.0148
300.0146
300.0022
299.986
299.9705
299.9589
299.9517
299.9468
299.9427
299.9384
299.9331
299.9267
299.919
299.9111
299.9065
299.9089
299.9137
299.9213
299.9347
299.9476
299.953
299.9667
299.9355
299.9159
299.9109
299.9068
299.9053
299.9096
299.9141
299.9189
299.9247
299.9317
299.9396
299.9481
299.9566
299.9647
299.9724
299.9797
299.9869
299.994
300.0002
300.004
300.0023
299.9916
299.9768
299.9628
299.9534
299.9474
299.9431
299.9395
299.9355
299.9308
299.925
299.9186
299.9143
299.9148
299.9178
299.9248
299.9404
299.9574
299.9671
299.9759
299.9303
299.9101
299.9066
299.9045
299.9049
299.9093
299.9124
299.9162
299.9215
299.928
299.9352
299.9427
299.9503
299.9575
299.9645
299.9712
299.9775
299.983
299.9873
299.9897
299.9898
299.9881
299.979
299.9668
299.9553
299.9483
299.9437
299.9405
299.9377
299.9346
299.9308
299.9265
299.9225
299.9211
299.923
299.9299
299.9474
299.9616
299.9676
299.9764
299.926
299.9056
299.9035
299.9029
299.905
299.9091
299.9112
299.9144
299.9192
299.925
299.9312
299.9379
299.9445
299.951
299.9574
299.9635
299.9691
299.9737
299.9768
299.9778
299.9762
299.9725
299.9679
299.9632
299.9564
299.9494
299.9445
299.9415
299.9397
299.938
299.9362
299.9341
299.9321
299.9308
299.9294
299.9356
299.9523
299.9603
299.9642
299.9751
299.9229
299.9026
299.9014
299.902
299.9054
299.9088
299.9104
299.9132
299.9174
299.9224
299.9278
299.9336
299.9394
299.9452
299.951
299.9567
299.9619
299.9659
299.9681
299.9684
299.9662
299.9613
299.9541
299.9475
299.9508
299.95
299.9458
299.9429
299.9418
299.9415
299.9417
299.942
299.9426
299.9437
299.9446
299.9488
299.9576
299.9588
299.9627
299.9768
299.9209
299.9006
299.8999
299.9014
299.9057
299.9087
299.91
299.9124
299.916
299.9202
299.9249
299.9299
299.935
299.9402
299.9455
299.9508
299.9556
299.9593
299.9612
299.961
299.9586
299.9541
299.9466
299.9381
299.9382
299.9472
299.947
299.9449
299.9444
299.9453
299.9473
299.95
299.953
299.9558
299.9573
299.9573
299.9595
299.9605
299.9664
299.9818
299.9197
299.8997
299.8989
299.9012
299.9061
299.9089
299.9102
299.9122
299.9151
299.9186
299.9225
299.9269
299.9315
299.9362
299.941
299.9459
299.9504
299.9538
299.9556
299.9553
299.9529
299.9489
299.9418
299.9341
299.9323
299.9409
299.946
299.9463
299.9472
299.9494
299.9528
299.957
299.9609
299.9631
299.9626
299.9605
299.9609
299.9635
299.9709
299.985
299.9192
299.8994
299.8987
299.9018
299.907
299.9099
299.9112
299.9127
299.9148
299.9176
299.9209
299.9247
299.9288
299.9331
299.9376
299.9421
299.9462
299.9494
299.951
299.9508
299.9487
299.9449
299.9384
299.9319
299.931
299.9378
299.944
299.9459
299.9487
299.9528
299.9576
299.9623
299.9656
299.9667
299.9653
299.9632
299.9628
299.9657
299.9745
299.9878
299.9194
299.9002
299.8999
299.9038
299.9089
299.9119
299.9131
299.9141
299.9155
299.9175
299.9202
299.9234
299.9271
299.931
299.9352
299.9393
299.9431
299.946
299.9476
299.9475
299.9457
299.9422
299.9363
299.9309
299.9305
299.936
299.9424
299.9457
299.949
299.955
299.9617
299.9663
299.9686
299.9692
299.9681
299.9665
299.9662
299.9674
299.9761
299.9906
299.9208
299.9031
299.9031
299.9076
299.9122
299.9152
299.9162
299.9165
299.9171
299.9184
299.9204
299.923
299.9262
299.9298
299.9337
299.9374
299.9409
299.9436
299.9451
299.9451
299.9436
299.9404
299.9352
299.9303
299.9293
299.9332
299.9397
299.9448
299.949
299.9563
299.9651
299.9701
299.9717
299.9719
299.9711
299.9701
299.9699
299.9702
299.9775
299.9909
299.9244
299.9091
299.9089
299.9136
299.917
299.9197
299.9204
299.9199
299.9196
299.9201
299.9214
299.9235
299.9262
299.9294
299.9329
299.9363
299.9395
299.942
299.9434
299.9435
299.9419
299.9388
299.9341
299.9291
299.9267
299.9292
299.9354
299.9424
299.9481
299.9563
299.9684
299.9743
299.9752
299.9748
299.9738
299.9728
299.9723
299.9708
299.9747
299.9868
299.9313
299.9197
299.9182
299.9227
299.9237
299.9256
299.9257
299.9243
299.923
299.9226
299.9231
299.9246
299.9267
299.9295
299.9325
299.9357
299.9386
299.9409
299.9421
299.9421
299.9404
299.9369
299.9319
299.9265
299.9231
299.9248
299.9308
299.9388
299.9467
299.9556
299.9718
299.9785
299.9784
299.9772
299.976
299.975
299.9741
299.9717
299.9748
299.9891
299.943
299.936
299.9322
299.9366
299.9329
299.9329
299.9319
299.9295
299.9273
299.9259
299.9256
299.9262
299.9277
299.9298
299.9324
299.9352
299.9378
299.9399
299.941
299.9407
299.9384
299.934
299.9277
299.9217
299.9188
299.9204
299.926
299.9343
299.9437
299.9545
299.9756
299.9823
299.9809
299.9788
299.9771
299.9758
299.9745
299.971
299.9736
299.9903
299.9611
299.9593
299.9528
299.9578
299.9462
299.9424
299.9396
299.9359
299.9325
299.9301
299.9287
299.9284
299.929
299.9302
299.9321
299.9344
299.9367
299.9385
299.9394
299.9387
299.9353
299.929
299.922
299.917
299.9145
299.9147
299.9178
299.9247
299.9351
299.9515
299.9807
299.9863
299.983
299.9796
299.9773
299.9758
299.9741
299.9699
299.9721
299.9899
299.9864
299.9885
299.9813
299.9885
299.9662
299.9564
299.9505
299.9447
299.9395
299.9355
299.9328
299.9311
299.9303
299.9302
299.931
299.9324
299.9342
299.9359
299.9365
299.9347
299.9299
299.9243
299.9198
299.9164
299.913
299.9091
299.9058
299.9053
299.9156
299.944
299.9862
299.9913
299.9854
299.9804
299.9773
299.9751
299.9727
299.967
299.9687
299.9897
300.0121
300.0176
300.013
300.0229
299.9944
299.9789
299.968
299.9577
299.9492
299.9428
299.938
299.9341
299.931
299.9288
299.9279
299.9285
299.9301
299.9318
299.9322
299.93
299.9274
299.9257
299.9242
299.9218
299.9171
299.91
299.9031
299.8992
299.8994
299.937
299.9919
299.9976
299.9889
299.9819
299.9775
299.9743
299.9708
299.9635
299.9649
299.9917
300.0167
300.0208
300.0153
300.0223
300.0125
300.0103
299.9987
299.981
299.9661
299.9549
299.9457
299.9375
299.9303
299.9252
299.923
299.9232
299.9248
299.9266
299.928
299.9279
299.9288
299.93
299.9305
299.9295
299.9261
299.9197
299.9115
299.9072
299.9056
299.9358
299.9965
300.0066
299.9952
299.9853
299.9788
299.974
299.9689
299.9601
299.9611
299.9918
299.9964
299.9879
299.9753
299.9745
299.9895
300.0124
300.0194
300.0092
299.9943
299.9769
299.9594
299.9436
299.9307
299.9228
299.9194
299.9188
299.9197
299.9215
299.9242
299.9271
299.9302
299.933
299.9349
299.9356
299.9346
299.9312
299.9258
299.9201
299.9186
299.9405
300.0071
300.0232
300.0068
299.9915
299.9813
299.9742
299.9677
299.9581
299.9585
299.987
299.98
299.9673
299.9501
299.9437
299.9564
299.9794
299.9998
300.0058
300.0029
299.988
299.969
299.9517
299.938
299.9285
299.9229
299.9198
299.9187
299.9195
299.9223
299.9262
299.9296
299.933
299.936
299.9382
299.9393
299.9387
299.9363
299.9328
299.9332
299.9573
300.0179
300.0289
300.0082
299.9924
299.9824
299.9746
299.9677
299.9581
299.9579
299.9802
299.9717
299.9632
299.9508
299.9398
299.9413
299.9499
299.9644
299.9768
299.9783
299.968
299.9559
299.946
299.9376
299.9305
299.9253
299.9217
299.9198
299.92
299.9224
299.9262
299.9301
299.9333
299.9364
299.939
299.9408
299.9414
299.9408
299.9399
299.9431
299.9725
300.0259
300.0309
300.0122
299.9977
299.9856
299.9764
299.968
299.9561
299.9524
299.9715
299.9896
299.99
299.9764
299.9595
299.9577
299.9687
299.9989
300.0282
300.0241
300.0011
299.9815
299.9677
299.958
299.9518
299.9476
299.9448
299.9434
299.9432
299.9443
299.9463
299.9481
299.9493
299.9501
299.9502
299.9493
299.9474
299.9449
299.9437
299.9476
299.9737
300.0156
300.0206
300.0098
299.9996
299.9901
299.9826
299.9744
299.9605
299.9555
299.9645
299.9633
299.8934
299.9843
300.0665
300.1044
300.1075
300.0783
300.0482
300.0335
300.0205
299.9852
299.9472
299.9384
299.9399
299.9404
299.9413
299.9469
299.9617
299.9871
300.0178
300.0432
300.0585
300.0651
300.0642
300.0563
300.0483
300.0437
300.0347
300.0167
300
299.991
299.9862
299.9826
299.9817
299.9852
299.9925
300.0066
300.0205
299.9919
299.9708
299.8441
299.8559
299.9374
299.9847
299.9971
299.9906
299.9744
299.9679
299.9705
299.971
299.9546
299.9348
299.9315
299.9319
299.9288
299.9265
299.9328
299.9437
299.9581
299.9814
300.0139
300.0486
300.0624
300.0572
300.0398
300.0296
300.0278
300.0225
300.0088
299.9913
299.9804
299.9708
299.9642
299.963
299.9668
299.9712
299.9707
299.9673
299.9594
299.9699
299.8722
299.8828
299.9178
299.9428
299.9348
299.9257
299.9256
299.9295
299.935
299.9385
299.9384
299.9352
299.9334
299.9319
299.9278
299.9243
299.9286
299.9363
299.946
299.9602
299.9784
299.9961
300.0058
300.0081
300.0075
300.0066
300.005
299.9995
299.9915
299.9819
299.9745
299.9684
299.9644
299.963
299.9637
299.9624
299.96
299.957
299.9528
299.9819
299.8733
299.8865
299.9219
299.9387
299.9293
299.9309
299.9341
299.9367
299.9395
299.9441
299.948
299.9482
299.9446
299.9383
299.93
299.9257
299.9289
299.9374
299.9459
299.957
299.9719
299.9868
299.9965
300.0006
300.0012
299.9982
299.9938
299.9876
299.981
299.9754
299.9702
299.9651
299.9615
299.9598
299.9589
299.9568
299.9547
299.9521
299.9464
299.9689
299.8583
299.8994
299.9378
299.9424
299.9385
299.9441
299.9473
299.949
299.9493
299.9521
299.9593
299.9629
299.9594
299.9514
299.9389
299.9298
299.9322
299.94
299.9477
299.9578
299.9713
299.9845
299.992
299.9942
299.9924
299.9891
299.9856
299.9809
299.9759
299.9712
299.9667
299.9624
299.9584
299.9554
299.9531
299.9509
299.9486
299.9451
299.937
299.9543
299.9675
299.9659
299.9549
299.937
299.9442
299.9502
299.953
299.9553
299.9569
299.9595
299.9658
299.9721
299.9714
299.9641
299.9517
299.9379
299.9372
299.9439
299.9497
299.9575
299.9681
299.9786
299.985
299.9873
299.9865
299.9847
299.9815
299.9771
299.9725
299.9684
299.9648
299.9612
299.9572
299.9531
299.9491
299.9456
299.9423
299.9373
299.9282
299.9423
299.9867
299.9564
299.9282
299.9351
299.9456
299.9506
299.953
299.9562
299.9602
299.965
299.9699
299.9762
299.9798
299.9759
299.966
299.9497
299.9446
299.9491
299.9519
299.9572
299.9654
299.9734
299.979
299.982
299.983
299.9823
299.9793
299.975
299.9705
299.9667
299.9635
299.9604
299.9568
299.9521
299.9459
299.9402
299.935
299.9284
299.9199
299.9328
299.9689
299.9401
299.9232
299.9338
299.9428
299.9472
299.9496
299.9538
299.9601
299.9671
299.9725
299.9777
299.9857
299.9874
299.9784
299.962
299.9531
299.9533
299.953
299.9556
299.9607
299.9669
299.9721
299.9764
299.9803
299.9809
299.9779
299.973
299.9685
299.9649
299.9621
299.9597
299.9566
299.952
299.9442
299.9352
299.9271
299.919
299.9176
299.9292
299.9616
299.9379
299.9228
299.9307
299.9377
299.9414
299.9443
299.9496
299.9578
299.967
299.974
299.9794
299.9915
299.9973
299.9874
299.9726
299.9621
299.9583
299.9551
299.9546
299.9561
299.9595
299.963
299.9671
299.9728
299.9782
299.9779
299.972
299.9668
299.9632
299.9609
299.9594
299.9571
299.9529
299.9447
299.9332
299.9206
299.9122
299.9144
299.9261
299.9528
299.9336
299.9185
299.9262
299.9324
299.9353
299.9387
299.9455
299.9551
299.9662
299.9751
299.9827
299.9975
300.0052
299.9946
299.9816
299.9706
299.9651
299.9598
299.9557
299.9537
299.9533
299.9542
299.9553
299.9586
299.9666
299.9757
299.9732
299.9661
299.9625
299.9612
299.9598
299.9583
299.9554
299.9473
299.9332
299.9195
299.9127
299.9033
299.9201
299.9455
299.9304
299.915
299.9214
299.9279
299.9313
299.9355
299.9435
299.9539
299.9663
299.9773
299.9879
300.0035
300.0116
300.0013
299.9899
299.9792
299.972
299.9657
299.9589
299.9539
299.9506
299.9486
299.9478
299.9484
299.9531
299.9655
299.9753
299.9713
299.9658
299.9622
299.9608
299.9602
299.9571
299.9468
299.9308
299.9216
299.9152
299.8979
299.9227
299.9509
299.9354
299.9153
299.916
299.9223
299.9273
299.9338
299.943
299.954
299.9675
299.9815
299.9944
300.0092
300.0168
300.0084
299.9982
299.9881
299.9804
299.9735
299.9651
299.9569
299.9512
299.9472
299.9449
299.9448
299.948
299.9584
299.9768
299.976
299.9691
299.963
299.9613
299.961
299.956
299.9428
299.927
299.9231
299.9169
299.8986
299.9169
299.9664
299.9421
299.9131
299.9074
299.9136
299.9206
299.9307
299.9421
299.954
299.9723
299.9886
300.001
300.0131
300.0199
300.0152
300.0069
299.9976
299.9898
299.9817
299.9723
299.9618
299.9539
299.9483
299.9444
299.9431
299.9454
299.9534
299.9767
299.9739
299.9681
299.9606
299.9584
299.9578
299.951
299.9376
299.9261
299.9241
299.9184
299.899
299.9077
299.9649
299.9333
299.903
299.8977
299.9034
299.912
299.9262
299.9399
299.9586
299.9843
299.999
300.0073
300.0147
300.0198
300.0202
300.0153
300.0072
299.9988
299.9899
299.9797
299.9685
299.958
299.9507
299.9455
299.9424
299.9416
299.9447
299.957
299.9674
299.9576
299.9502
299.9458
299.9447
299.9419
299.9328
299.9242
299.9242
299.9204
299.9034
299.9064
299.9495
299.9186
299.8941
299.8904
299.8941
299.9044
299.9205
299.9392
299.9733
299.9978
300.0067
300.0098
300.0126
300.0156
300.0199
300.0218
300.0159
300.0061
299.9958
299.9857
299.9751
299.9638
299.9541
299.9476
299.9432
299.9401
299.9387
299.9397
299.9438
299.9404
299.9321
299.9241
299.9249
299.9292
299.9281
299.9194
299.921
299.9192
299.9027
299.8941
299.9412
299.9202
299.8996
299.8894
299.8881
299.8993
299.9204
299.9497
299.9795
299.9958
300.0016
300.0034
300.0048
300.0068
300.0109
300.0179
300.0204
300.0124
300.0002
299.9892
299.9797
299.9694
299.9589
299.9505
299.9447
299.9403
299.9364
299.933
299.9299
299.9244
299.91
299.8984
299.9007
299.912
299.9207
299.9161
299.9137
299.9121
299.8915
299.9002
299.9406
299.9246
299.9095
299.8948
299.8921
299.9037
299.9223
299.9435
299.9635
299.9781
299.9865
299.9911
299.9944
299.9974
300.0007
300.0057
300.012
300.0134
300.0044
299.9921
299.9821
299.9731
299.9638
299.9547
299.9472
299.9414
299.9362
299.9311
299.9258
299.9191
299.9089
299.8942
299.8785
299.8883
299.908
299.915
299.9065
299.9091
299.8951
299.899
299.9411
299.9249
299.9114
299.8961
299.8926
299.9026
299.9175
299.9333
299.9486
299.9617
299.9718
299.9792
299.9849
299.9893
299.9926
299.9958
300.0003
300.0048
300.0033
299.9943
299.9838
299.975
299.9668
299.9585
299.9506
299.9438
299.9378
299.9318
299.9258
299.9197
299.9116
299.9032
299.8934
299.8774
299.8882
299.912
299.9103
299.9124
299.9114
299.9162
299.9382
299.9194
299.9076
299.8957
299.8928
299.9018
299.9135
299.9253
299.9371
299.949
299.9605
299.9702
299.9776
299.9826
299.9859
299.9882
299.9906
299.9939
299.996
299.992
299.9837
299.9754
299.9677
299.9603
299.9528
299.9458
299.9396
299.9336
299.9276
299.9218
299.9159
299.9103
299.9069
299.9016
299.8942
299.9066
299.923
299.9181
299.9182
299.9412
299.9321
299.9089
299.9008
299.8937
299.8933
299.9024
299.9115
299.9199
299.9295
299.9412
299.9537
299.9644
299.972
299.977
299.98
299.9819
299.9833
299.9847
299.986
299.9852
299.9801
299.9735
299.9669
299.9602
299.9531
299.9464
299.9403
299.935
299.9298
299.9247
299.9201
299.9159
299.9136
299.9133
299.9121
299.9121
299.9295
299.9414
299.9459
299.9658
299.9251
299.8969
299.893
299.8918
299.8958
299.9044
299.911
299.9171
299.9256
299.9374
299.9497
299.9598
299.9671
299.9717
299.9745
299.9763
299.9772
299.9777
299.9775
299.9766
299.9738
299.9692
299.965
299.9595
299.9528
299.9461
299.9403
299.9358
299.9317
299.9278
299.9243
299.9213
299.9194
299.9191
299.92
299.9218
299.9329
299.9509
299.963
299.976
299.9192
299.8872
299.8896
299.8946
299.8999
299.9069
299.911
299.9157
299.924
299.9351
299.9464
299.9557
299.9623
299.9666
299.9693
299.9709
299.9717
299.9717
299.9709
299.9691
299.9662
299.9628
299.9604
299.9584
299.9527
299.9461
299.9405
299.9363
299.9333
299.9307
299.9285
299.9266
299.9253
299.9248
299.9254
299.928
299.9355
299.9497
299.9616
299.976
299.9144
299.8824
299.8901
299.8971
299.9023
299.9081
299.9115
299.916
299.9234
299.9334
299.9433
299.9515
299.9577
299.9618
299.9644
299.9659
299.9666
299.9664
299.9653
299.9632
299.9602
299.9563
299.9533
299.9531
299.9514
299.9452
299.9396
299.9358
299.9341
299.9331
299.9325
299.9321
299.932
299.932
299.9317
299.9335
299.9398
299.947
299.9582
299.9765
299.9109
299.8803
299.8906
299.8984
299.9036
299.9086
299.9121
299.9169
299.9237
299.9322
299.9405
299.9475
299.9532
299.9573
299.9597
299.9612
299.9618
299.9615
299.9604
299.9583
299.9556
299.9522
299.9489
299.9467
299.9484
299.9466
299.941
299.9363
299.9345
299.9349
299.9362
299.9377
299.9391
299.9398
299.9397
299.9408
299.9449
299.9481
299.9565
299.9799
299.9087
299.8794
299.8911
299.8989
299.9043
299.9089
299.9127
299.9176
299.9238
299.931
299.938
299.9441
299.9491
299.953
299.9555
299.9568
299.9573
299.957
299.9559
299.954
299.9516
299.949
299.9462
299.9438
299.9444
299.948
299.9455
299.9409
299.9377
299.9374
299.9398
299.9435
299.9463
299.9471
299.9462
299.9458
299.9482
299.9511
299.959
299.9837
299.9076
299.88
299.8917
299.8993
299.9048
299.9092
299.9131
299.9178
299.9234
299.9295
299.9356
299.9409
299.9454
299.9489
299.9515
299.9528
299.9532
299.9528
299.9517
299.9501
299.9481
299.9461
299.9437
299.9417
299.9428
299.9472
299.9481
299.9454
299.9425
299.9416
299.9446
299.9502
299.9541
299.9545
299.952
299.9501
299.9508
299.954
299.9613
299.984
299.908
299.8821
299.8927
299.8999
299.9053
299.9096
299.9135
299.9178
299.9227
299.9281
299.9334
299.9382
299.9423
299.9455
299.9478
299.9492
299.9496
299.9491
299.948
299.9466
299.945
299.9432
299.9411
299.9396
299.9413
299.9456
299.9482
299.9476
299.9461
299.946
299.95
299.9565
299.9602
299.9601
299.957
299.9545
299.9542
299.9565
299.9633
299.9851
299.9107
299.8857
299.8946
299.9014
299.9063
299.9105
299.9142
299.918
299.9223
299.927
299.9318
299.9362
299.94
299.9429
299.945
299.9462
299.9465
299.946
299.945
299.9437
299.9422
299.9404
299.9383
299.9371
299.9387
299.9425
299.9462
299.9476
299.9477
299.9493
299.9551
299.9617
299.9646
299.9641
299.9614
299.9589
299.9582
299.9588
299.9626
299.9865
299.916
299.8914
299.8981
299.9043
299.9083
299.9122
299.9156
299.9189
299.9227
299.9268
299.9311
299.9352
299.9386
299.9413
299.9431
299.9441
299.9442
299.9437
299.9428
299.9416
299.9399
299.9377
299.9354
299.9335
299.9338
299.9369
299.9413
299.9453
299.9479
299.9517
299.9599
299.9667
299.9686
299.9678
299.9653
299.9629
299.9619
299.9621
299.9658
299.9904
299.9257
299.8994
299.9034
299.9085
299.9115
299.9151
299.9181
299.9208
299.9239
299.9276
299.9315
299.9352
299.9383
299.9406
299.9422
299.9428
299.9428
299.9422
299.9412
299.9399
299.9379
299.9351
299.9319
299.9282
299.9263
299.9286
299.9343
299.9411
299.9471
299.9535
299.9647
299.9718
299.9727
299.9717
299.9691
299.9661
299.9641
299.9631
299.9657
299.9838
299.9418
299.91
299.9101
299.9139
299.9159
299.9191
299.9217
299.9238
299.9263
299.9295
299.933
299.9364
299.9391
299.9411
299.9422
299.9424
299.9421
299.9413
299.9401
299.9384
299.9357
299.9319
299.9273
299.9224
299.9193
299.9215
299.9284
299.9378
299.947
299.9561
299.9701
299.9768
299.9767
299.9753
299.9721
299.9684
299.9657
299.9636
299.9642
299.9818
299.9665
299.9232
299.918
299.9203
299.9212
299.9242
299.9264
299.9281
299.9302
299.9329
299.9359
299.9389
299.9412
299.9427
299.9432
299.9429
299.942
299.9407
299.9386
299.936
299.9323
299.9272
299.9216
299.917
299.9159
299.9197
299.9269
299.9369
299.9481
299.9606
299.9771
299.9818
299.9803
299.9778
299.9734
299.9697
299.9667
299.9639
299.9639
299.9877
300.0019
299.939
299.927
299.9278
299.9272
299.9302
299.9325
299.9341
299.9358
299.938
299.9404
299.9428
299.9447
299.9454
299.945
299.9435
299.9414
299.9384
299.935
299.9312
299.9263
299.9206
299.9155
299.9138
299.916
299.9206
299.9264
299.9345
299.9476
299.9657
299.9855
299.9872
299.9831
299.9788
299.9737
299.9699
299.9669
299.9638
299.9639
299.9912
300.0502
299.957
299.9361
299.9355
299.9335
299.9369
299.9398
299.9416
299.9431
299.9446
299.9463
299.948
299.9491
299.9485
299.9456
299.9412
299.9369
299.9329
299.9289
299.9237
299.9177
299.9138
299.9141
299.9176
299.9221
299.927
299.9316
299.9361
299.9498
299.9713
299.9942
299.9931
299.9856
299.9793
299.9732
299.969
299.9659
299.9618
299.9606
299.9909
300.1004
299.9731
299.9436
299.9409
299.9385
299.9422
299.9461
299.9485
299.9497
299.9505
299.9514
299.9523
299.9513
299.9472
299.9408
299.9352
299.9316
299.9289
299.9258
299.9222
299.9192
299.9188
299.9215
299.9262
299.9315
299.9372
299.9426
299.9473
299.9539
299.9766
300.0023
299.9993
299.9886
299.98
299.9726
299.9678
299.9644
299.9593
299.9579
299.9966
300.1394
299.9794
299.946
299.9393
299.9393
299.9447
299.9484
299.9504
299.9511
299.9515
299.9508
299.9493
299.9456
299.9404
299.9353
299.932
299.9303
299.929
299.929
299.9293
299.9289
299.9288
299.9305
299.9343
299.9393
299.9458
299.9519
299.9577
299.9639
299.9813
300.0069
300.006
299.9931
299.9822
299.9721
299.9662
299.962
299.9564
299.9553
300.0035
300.1399
299.9738
299.9429
299.9348
299.9352
299.9399
299.9424
299.9426
299.942
299.9414
299.941
299.9413
299.9415
299.9402
299.9366
299.9327
299.93
299.9292
299.9307
299.9314
299.9329
299.9347
299.9366
299.9389
299.9427
299.9478
299.9533
299.9598
299.9683
299.9802
300.0067
300.0088
299.9955
299.9832
299.9712
299.964
299.959
299.9531
299.9518
299.9931
300.0922
299.9633
299.939
299.9325
299.9307
299.9315
299.9322
299.9319
299.9321
299.934
299.9381
299.9446
299.9505
299.9481
299.9403
299.9328
299.9274
299.9256
299.9283
299.9302
299.9317
299.9338
299.9361
299.9385
299.9406
299.9432
299.9485
299.9581
299.9707
299.9828
299.998
299.9921
299.9777
299.9739
299.9692
299.9619
299.9558
299.9496
299.9475
299.9886
300.0195
299.9615
299.9476
299.9379
299.9308
299.9277
299.9272
299.9304
299.9358
299.9428
299.9523
299.9603
299.9584
299.9478
299.9376
299.9292
299.9226
299.9208
299.9239
299.928
299.93
299.9308
299.9324
299.9343
299.936
299.9374
299.939
299.9473
299.9668
299.9909
300.0083
300.0019
299.9929
299.9892
299.9711
299.9557
299.9459
299.9343
299.9218
299.9788
300.0004
299.9791
299.9654
299.9524
299.9517
299.9633
299.998
300.0467
300.0665
300.0576
300.047
300.031
300.0108
299.9899
299.9725
299.9592
299.9496
299.9448
299.9432
299.9425
299.9418
299.9417
299.9417
299.9413
299.9405
299.9394
299.9392
299.9446
299.9645
299.9933
300.0142
300.0134
300.008
300.0003
299.9876
299.9781
299.9698
299.9575
299.9487
299.978
299.9776
299.9309
300.0392
300.0975
300.1154
300.1125
300.0829
300.0547
300.038
300.0216
299.9917
299.9624
299.9511
299.948
299.9451
299.9437
299.9502
299.9681
299.9925
300.0149
300.0293
300.0339
300.0339
300.0315
300.0297
300.0325
300.0408
300.0434
300.0242
299.9988
299.9847
299.979
299.9771
299.9782
299.9841
299.9932
299.9997
299.9951
299.9712
299.9622
299.8715
299.914
299.9632
299.9763
299.9781
299.9724
299.9628
299.9592
299.96
299.9595
299.9525
299.9444
299.9416
299.9393
299.9353
299.9335
299.9428
299.9539
299.9628
299.9771
299.9963
300.0213
300.0369
300.0285
300.0093
300.0032
300.0062
300.0073
300.0019
299.9919
299.9822
299.9747
299.9692
299.9668