/*--------------------------------*- C++ -*----------------------------------*\
| =========                 |                                                 |
| \\      /  F ield         | OpenFOAM: The Open Source CFD Toolbox           |
|  \\    /   O peration     | Version:  2212                                  |
|   \\  /    A nd           | Website:  www.openfoam.com                      |
|    \\/     M anipulation  |                                                 |
\*---------------------------------------------------------------------------*/
FoamFile
{
    version     2.0;
    format      ascii;
    arch        "LSB;label=32;scalar=64";
    class       volVectorField;
    location    "3000";
    object      U;
}
// * * * * * * * * * * * * * * * * * * * * * * * * * * * * * * * * * * * * * //

dimensions      [0 1 -1 0 0 0 0];

internalField   nonuniform List<vector> 
96000
(
(-0.001647558 -0.02591985 0.008622397)
(0.01704257 -0.01886261 -0.003806293)
(0.0326587 -0.01719033 0.005746227)
(0.02916177 -0.0207777 0.0184381)
(0.01770096 -0.02435786 0.0262559)
(0.00632946 -0.02607562 0.02777104)
(-0.001861986 -0.02427457 0.0230951)
(-0.004910599 -0.02036789 0.01841416)
(-0.007980717 -0.01639878 0.0166161)
(-0.0143246 -0.01263441 0.01506238)
(-0.02128089 -0.008956278 0.01045952)
(-0.02528851 -0.006364589 0.006134796)
(-0.0281415 -0.005499068 0.00523749)
(-0.03184876 -0.005651464 0.005014956)
(-0.03468866 -0.006270636 0.004260697)
(-0.03484062 -0.007429555 0.003245905)
(-0.03122808 -0.009266745 0.00231176)
(-0.02406227 -0.01136178 0.001820968)
(-0.01509143 -0.01309419 0.002258332)
(-0.006655878 -0.01372685 0.003961435)
(-0.000987127 -0.0132745 0.006018134)
(0.00118868 -0.01240625 0.007492801)
(0.0005984704 -0.01192532 0.008791316)
(-0.001435028 -0.01251992 0.01002739)
(-0.003166231 -0.01409633 0.01070941)
(-0.004252224 -0.01555325 0.01118822)
(-0.005775631 -0.01666712 0.0121325)
(-0.007939851 -0.01771552 0.01302519)
(-0.01034829 -0.01845393 0.01323617)
(-0.01276473 -0.0181771 0.01250607)
(-0.01386884 -0.01693203 0.01100382)
(-0.01355162 -0.01576366 0.009639398)
(-0.01271282 -0.01476104 0.008487739)
(-0.01138007 -0.01382828 0.007461613)
(-0.009768531 -0.0130637 0.006521332)
(-0.007651819 -0.01259539 0.005163905)
(-0.004816583 -0.01198272 0.003275769)
(-0.0003473369 -0.01091745 0.002233288)
(0.005745499 -0.01078448 0.002691018)
(0.006328534 -0.00952996 0.008712492)
(0.006142189 -0.02909477 -0.01358038)
(0.01981245 -0.02227314 -0.01528819)
(0.03214582 -0.02417787 -0.003639967)
(0.02380612 -0.0307835 0.007063425)
(0.0130895 -0.03722411 0.01010799)
(0.005315482 -0.04021435 0.008036756)
(0.001306268 -0.03845384 0.005363214)
(-0.0002282982 -0.03451672 0.005132046)
(-0.002941038 -0.03006322 0.006600498)
(-0.008869292 -0.025149 0.007926271)
(-0.01625185 -0.01894732 0.006593329)
(-0.02211901 -0.01328336 0.004308799)
(-0.02789482 -0.01037515 0.003812271)
(-0.03486968 -0.009356223 0.002735589)
(-0.04062972 -0.00919263 0.0003904804)
(-0.04262955 -0.009530032 -0.002470102)
(-0.0390191 -0.01064867 -0.005212245)
(-0.03125538 -0.01252975 -0.007490375)
(-0.02131573 -0.01498014 -0.008017283)
(-0.01194327 -0.01748572 -0.005833748)
(-0.005373531 -0.01946515 -0.001556581)
(-0.00303078 -0.02033671 0.00346052)
(-0.004980167 -0.02007044 0.005919196)
(-0.008303421 -0.01964984 0.005270012)
(-0.009906798 -0.0190416 0.002739232)
(-0.00956801 -0.01851736 0.0008459639)
(-0.009192857 -0.01846442 0.0002286942)
(-0.009267183 -0.01892919 -0.000467844)
(-0.009600105 -0.0198425 -0.001310326)
(-0.0106273 -0.02003274 -0.001826643)
(-0.01119635 -0.01862493 -0.002489724)
(-0.01072695 -0.01686549 -0.003439957)
(-0.009540322 -0.01520035 -0.004387853)
(-0.007677156 -0.01380281 -0.004899519)
(-0.005697733 -0.01288552 -0.004848182)
(-0.003392265 -0.01254718 -0.005073956)
(-0.0007210448 -0.01214119 -0.005964385)
(0.003914407 -0.01111638 -0.006619705)
(0.008206835 -0.01098761 -0.005733827)
(0.007758726 -0.01014763 0.001361101)
(0.007824394 -0.01390466 -0.02233224)
(0.01858647 -0.01391879 -0.01719224)
(0.02641887 -0.01903174 -0.006268734)
(0.0157064 -0.02752928 0.004092923)
(0.00572767 -0.03581552 0.002058228)
(0.001947964 -0.03913337 -0.002754058)
(0.001441638 -0.03824882 -0.003774297)
(0.001534728 -0.03594423 -0.002341567)
(-7.031319e-05 -0.03266593 -0.0002354959)
(-0.004333622 -0.02831167 0.001472609)
(-0.01050362 -0.02227376 0.002126853)
(-0.01676627 -0.01602931 0.002172012)
(-0.02347809 -0.0118788 0.00260114)
(-0.03144943 -0.009352036 0.001990012)
(-0.03867255 -0.007574632 -0.0003540325)
(-0.04239691 -0.006233483 -0.003240809)
(-0.04043207 -0.005987783 -0.005886706)
(-0.03415323 -0.007042324 -0.008481533)
(-0.02512021 -0.009423843 -0.009927514)
(-0.0158753 -0.01261625 -0.009191763)
(-0.009067806 -0.01542948 -0.006335282)
(-0.00621041 -0.01726013 -0.002630693)
(-0.006728656 -0.01766087 -0.0003599267)
(-0.008523115 -0.01627206 7.624521e-06)
(-0.009550835 -0.01377871 -0.0006317086)
(-0.009562597 -0.01160511 -0.001318661)
(-0.009341379 -0.01014103 -0.002232109)
(-0.008689751 -0.009148678 -0.003766894)
(-0.007394453 -0.008682433 -0.005155354)
(-0.006562575 -0.008548537 -0.005718982)
(-0.005857094 -0.007628258 -0.006235959)
(-0.004644301 -0.006373353 -0.006584253)
(-0.003372551 -0.005106166 -0.006635238)
(-0.002215327 -0.004231092 -0.006497373)
(-0.001343736 -0.00418639 -0.006485466)
(0.0001447761 -0.004829707 -0.007225831)
(0.002370829 -0.005137617 -0.007991537)
(0.005822958 -0.004361726 -0.008116935)
(0.008549514 -0.003970848 -0.007547771)
(0.006966678 -0.00382193 -0.0007096972)
(0.006109228 0.0009905722 -0.01970911)
(0.0133524 -0.003519338 -0.01733895)
(0.01916426 -0.01010732 -0.004279945)
(0.004968358 -0.02106683 0.00493908)
(-0.001240282 -0.02888935 -0.001395054)
(-0.001575792 -0.03145243 -0.004887228)
(0.0001689832 -0.03215732 -0.005095012)
(0.001884765 -0.03149304 -0.00354973)
(0.001783719 -0.02943257 -0.001344851)
(-0.0007739643 -0.02591656 0.0006781502)
(-0.005877589 -0.02093921 0.002016027)
(-0.01246642 -0.01554171 0.002407462)
(-0.01989449 -0.01118363 0.002573026)
(-0.02832143 -0.007986053 0.002030133)
(-0.03631538 -0.005391755 -0.0001798573)
(-0.04126286 -0.003351717 -0.002842054)
(-0.04079011 -0.002394461 -0.004977099)
(-0.03591423 -0.002684914 -0.007222872)
(-0.02799691 -0.004208208 -0.008900229)
(-0.01905363 -0.006775632 -0.008911537)
(-0.01170416 -0.009527615 -0.006512987)
(-0.007795881 -0.01167281 -0.002838709)
(-0.007079898 -0.01241741 -9.763231e-05)
(-0.008035506 -0.01147217 0.0009762596)
(-0.009020941 -0.009390967 0.0009940805)
(-0.009514033 -0.007058788 0.0004933009)
(-0.009715888 -0.004673025 -0.0005606699)
(-0.009381593 -0.002263819 -0.002250773)
(-0.008173939 -0.0003350821 -0.004015251)
(-0.006655072 0.001022874 -0.005275342)
(-0.005213531 0.002605494 -0.005965173)
(-0.003865044 0.004186875 -0.006133106)
(-0.002971341 0.005568533 -0.005947897)
(-0.002615028 0.006397595 -0.005828559)
(-0.002454273 0.006321592 -0.006305369)
(-0.001078578 0.005372576 -0.007411233)
(0.001484241 0.004461599 -0.007888678)
(0.004616222 0.004853041 -0.00720942)
(0.006860608 0.00581253 -0.007722762)
(0.005565013 0.006317158 -0.002473555)
(0.003323133 0.01586998 -0.01430614)
(0.008083633 0.01047143 -0.01111825)
(0.004368067 -0.004472907 0.004720456)
(-0.007815458 -0.01808491 0.004293847)
(-0.007719486 -0.02434261 -0.002907413)
(-0.00497699 -0.02757838 -0.005051856)
(-0.001065325 -0.02919046 -0.005194341)
(0.002290509 -0.02927929 -0.003749454)
(0.003625439 -0.02786767 -0.001655087)
(0.002698685 -0.02505604 0.0004693792)
(-0.0009996409 -0.02079322 0.002524941)
(-0.007761252 -0.01551063 0.003697277)
(-0.01624028 -0.01049803 0.003493057)
(-0.0254646 -0.006330513 0.002390638)
(-0.03409536 -0.002904334 -2.489351e-05)
(-0.03989547 -0.0004402531 -0.002658544)
(-0.04055522 0.00081272 -0.004348026)
(-0.03689647 0.0007652191 -0.005976166)
(-0.03025299 -0.000413995 -0.007245463)
(-0.022072 -0.002664573 -0.007294475)
(-0.01461531 -0.005458618 -0.005117551)
(-0.009893979 -0.007862931 -0.001683357)
(-0.007944727 -0.008988195 0.0007957755)
(-0.007665 -0.008374272 0.001777986)
(-0.007802816 -0.00623084 0.001893934)
(-0.007874779 -0.003242726 0.001958052)
(-0.008094354 0.0001907379 0.001682907)
(-0.008402478 0.003465219 0.0005288547)
(-0.008085205 0.00613827 -0.0008690536)
(-0.007194247 0.008232438 -0.001932522)
(-0.006226446 0.01014827 -0.002504956)
(-0.005518391 0.01182482 -0.002746504)
(-0.005425676 0.01317832 -0.002826839)
(-0.00588731 0.01382705 -0.00312471)
(-0.006305546 0.01341212 -0.004054349)
(-0.00499562 0.01201674 -0.005533313)
(-0.001907425 0.01065244 -0.00667799)
(0.00231475 0.01062995 -0.006720669)
(0.005773243 0.01268017 -0.007383264)
(0.00532797 0.01390901 -0.001661658)
(-0.003150245 0.01943821 0.006592274)
(-0.01025035 0.008441001 0.01187244)
(-0.01863415 -0.01094736 0.009355543)
(-0.01710812 -0.01787844 -0.00101367)
(-0.01247278 -0.02197208 -0.004746393)
(-0.00721805 -0.02472181 -0.005876402)
(-0.001606545 -0.02647671 -0.006048637)
(0.003212686 -0.02686341 -0.004440836)
(0.00555373 -0.02582891 -0.00221022)
(0.005735954 -0.02375863 -0.0001615839)
(0.003367307 -0.0203029 0.002082564)
(-0.002478864 -0.01536767 0.004299761)
(-0.01201116 -0.009614902 0.004696176)
(-0.02293894 -0.004443773 0.002836716)
(-0.03234359 -0.0004091212 0.0001615429)
(-0.03863301 0.002326059 -0.002631188)
(-0.0403216 0.003599644 -0.004230842)
(-0.03767741 0.003568781 -0.005460438)
(-0.03218417 0.002449467 -0.006575386)
(-0.02492109 0.0002234198 -0.006788812)
(-0.01763919 -0.00272434 -0.005168788)
(-0.01211749 -0.005312697 -0.002384578)
(-0.008760627 -0.006543475 -0.0001704397)
(-0.006846955 -0.006036402 0.001117239)
(-0.005649335 -0.003780817 0.002113743)
(-0.004973031 -0.0004104546 0.003222829)
(-0.005124412 0.003277051 0.003248547)
(-0.005785713 0.006612506 0.002309249)
(-0.005950728 0.009439862 0.001151313)
(-0.005488994 0.01184451 0.0002805489)
(-0.004919099 0.01406313 -0.0001234673)
(-0.004830324 0.01610516 -0.000194685)
(-0.005739745 0.01777567 -0.0002285109)
(-0.007494766 0.01850286 -0.0007370061)
(-0.009004162 0.01775724 -0.002076497)
(-0.00807316 0.01572936 -0.003985251)
(-0.004665484 0.01379319 -0.005666036)
(0.000992056 0.0137506 -0.006341587)
(0.005675854 0.01765552 -0.006471805)
(0.00547196 0.01926914 -7.918167e-05)
(-0.0103363 0.00353954 0.01717948)
(-0.02203381 -0.004403961 0.01134957)
(-0.02488273 -0.0139159 -0.0005352897)
(-0.01968864 -0.0165122 -0.004513564)
(-0.01450646 -0.01917691 -0.005831423)
(-0.008265201 -0.0214111 -0.006869195)
(-0.001423862 -0.02315081 -0.007268344)
(0.004655477 -0.02364122 -0.005329461)
(0.007657742 -0.02280914 -0.00282162)
(0.008433402 -0.02130423 -0.0008645413)
(0.006937826 -0.01869613 0.001167196)
(0.002365597 -0.01426113 0.003889354)
(-0.007288754 -0.008081827 0.005558484)
(-0.02031077 -0.002139476 0.003809992)
(-0.03019321 0.002162541 0.0009401435)
(-0.03704037 0.00517298 -0.002306202)
(-0.03994575 0.006612039 -0.004089209)
(-0.03830969 0.006524785 -0.004993845)
(-0.03392053 0.005362013 -0.005870256)
(-0.02768355 0.003147397 -0.00613012)
(-0.02095293 2.761764e-05 -0.005050475)
(-0.01473283 -0.002967292 -0.003219511)
(-0.009873845 -0.004579194 -0.001403168)
(-0.006032412 -0.004312089 0.000165575)
(-0.003076966 -0.002064508 0.002145254)
(-0.001314673 0.001625732 0.004140206)
(-0.00129425 0.005340172 0.004215198)
(-0.002033505 0.008658966 0.003242971)
(-0.002501792 0.01141104 0.002089043)
(-0.002400566 0.0138347 0.001303854)
(-0.002241266 0.01614029 0.001086868)
(-0.002761339 0.01834166 0.001337576)
(-0.004664027 0.02028986 0.001678545)
(-0.007852831 0.02110794 0.001296904)
(-0.01079499 0.01988952 -0.0004303382)
(-0.01052456 0.01692911 -0.002843464)
(-0.007015326 0.01409433 -0.004949783)
(0.0002340994 0.01383254 -0.006142373)
(0.006255758 0.01966761 -0.005157574)
(0.006034411 0.02128271 0.002139306)
(-0.01425559 -0.00247405 0.01552529)
(-0.02668875 -0.005892171 0.004917043)
(-0.02802367 -0.01026685 -0.004036931)
(-0.02172268 -0.01286973 -0.005898744)
(-0.01596193 -0.01526669 -0.006751678)
(-0.00883083 -0.01732471 -0.007963955)
(-0.0007679386 -0.01908455 -0.008596499)
(0.006416644 -0.01960291 -0.006129134)
(0.009856618 -0.01883592 -0.003168092)
(0.01080743 -0.01773174 -0.001271878)
(0.009810175 -0.01582722 0.0003863171)
(0.006384422 -0.01205396 0.002851501)
(-0.002527751 -0.006068755 0.005851521)
(-0.01658655 0.0004152003 0.005940679)
(-0.02745419 0.004481098 0.002341866)
(-0.03507382 0.007827975 -0.001488613)
(-0.0393213 0.009497264 -0.003642674)
(-0.0388212 0.009378114 -0.004547871)
(-0.03561815 0.008076281 -0.005289078)
(-0.0303683 0.005714385 -0.00572047)
(-0.02422319 0.002409123 -0.005427155)
(-0.01760498 -0.001053839 -0.004462329)
(-0.01142662 -0.003381374 -0.003171988)
(-0.00567142 -0.003721767 -0.001657075)
(-0.0005504672 -0.001675874 0.001059102)
(0.002943726 0.002851921 0.004613416)
(0.003463813 0.007023732 0.00521368)
(0.002603733 0.01023033 0.003678933)
(0.001876897 0.01286272 0.002484453)
(0.001603013 0.01515525 0.001714398)
(0.001328447 0.01733967 0.001648449)
(0.000276 0.01949751 0.002299332)
(-0.002807872 0.02117989 0.003199418)
(-0.007559771 0.02172685 0.003334985)
(-0.01225101 0.02031559 0.001639063)
(-0.01338105 0.01666903 -0.001416247)
(-0.009818385 0.01239788 -0.004363411)
(-0.0009023893 0.01160778 -0.006547145)
(0.007177416 0.01795423 -0.003195141)
(0.006701783 0.01927773 0.005120362)
(-0.01632055 -0.00255382 0.01447151)
(-0.02986014 -0.004018359 0.003786744)
(-0.03109919 -0.006421342 -0.004876293)
(-0.02370897 -0.008724632 -0.00697034)
(-0.01708978 -0.01076739 -0.007843071)
(-0.009150628 -0.01263902 -0.009264706)
(9.020527e-05 -0.01440246 -0.01006088)
(0.008229102 -0.01497857 -0.006966464)
(0.01207164 -0.01427012 -0.003370148)
(0.01289719 -0.01340206 -0.001310287)
(0.01204536 -0.01201262 -4.68605e-05)
(0.009308451 -0.009042199 0.001881077)
(0.001346629 -0.003739524 0.006105395)
(-0.01264616 0.002727003 0.008178782)
(-0.02457624 0.006536028 0.00368798)
(-0.03255157 0.01006615 -0.0002486096)
(-0.03793857 0.01199724 -0.002731137)
(-0.03906885 0.01222933 -0.003993033)
(-0.03710459 0.01099076 -0.004797587)
(-0.03302375 0.008589122 -0.005544386)
(-0.02748194 0.005175413 -0.006163001)
(-0.02097101 0.001409265 -0.006170995)
(-0.01392224 -0.001870221 -0.005859131)
(-0.00675228 -0.003549857 -0.005140875)
(0.0006652469 -0.002723164 -0.003231369)
(0.006700976 0.001744123 0.00179344)
(0.008741135 0.008042223 0.005899285)
(0.007725617 0.01158109 0.004765458)
(0.006614261 0.0138899 0.002916721)
(0.005907088 0.01593412 0.001857285)
(0.005265546 0.0178148 0.001939565)
(0.003573219 0.01964495 0.003024118)
(-0.0007214343 0.02066645 0.00470892)
(-0.007140606 0.0204612 0.005807421)
(-0.01390235 0.01832269 0.004762045)
(-0.01699074 0.01407722 0.001109909)
(-0.0137258 0.009011222 -0.003779067)
(-0.003877153 0.007201781 -0.007575991)
(0.007141323 0.01185395 -0.002296846)
(0.007171306 0.01336732 0.00781362)
(-0.01724247 -0.001492595 0.01343975)
(-0.03160776 -0.001889607 0.003582343)
(-0.03352597 -0.002479599 -0.005072326)
(-0.02550523 -0.004089162 -0.007871241)
(-0.01801746 -0.005678185 -0.008988118)
(-0.009422223 -0.007389687 -0.01073821)
(0.0007747895 -0.00923505 -0.01177878)
(0.009747757 -0.009981581 -0.008197487)
(0.01408658 -0.009439146 -0.003887278)
(0.01472293 -0.008789635 -0.001278139)
(0.01360741 -0.00787021 -6.596072e-05)
(0.01107788 -0.005692037 0.001695276)
(0.004174493 -0.001337434 0.00661504)
(-0.008836882 0.004386168 0.009745903)
(-0.02162694 0.008166085 0.004896173)
(-0.02967426 0.01168371 0.001195851)
(-0.03602879 0.01392289 -0.001537626)
(-0.03889286 0.01469639 -0.003308134)
(-0.03811418 0.01385798 -0.004313457)
(-0.03528914 0.01182662 -0.005389745)
(-0.03067108 0.008866332 -0.006778497)
(-0.02466252 0.005345292 -0.008032798)
(-0.01743736 0.001717207 -0.008877453)
(-0.009472451 -0.001057952 -0.009472448)
(-0.000700958 -0.001932847 -0.009298656)
(0.008358105 -3.736672e-05 -0.005274789)
(0.01351632 0.006529918 0.003077182)
(0.01305655 0.01230641 0.005956043)
(0.01115349 0.01467285 0.003537285)
(0.01003361 0.01626571 0.002020956)
(0.00924932 0.01776222 0.002472825)
(0.006510261 0.01862196 0.004052671)
(0.0008923696 0.01852794 0.006653548)
(-0.007338327 0.01679086 0.008607837)
(-0.01588412 0.01304305 0.007690378)
(-0.02009914 0.007813861 0.002630307)
(-0.01643483 0.002978194 -0.003701668)
(-0.007570676 0.001478893 -0.007060502)
(0.004177526 0.00116708 -0.006823489)
(0.006524068 0.003877881 0.00575051)
(-0.01762525 0.002016494 0.01301503)
(-0.03247354 0.001267965 0.004290549)
(-0.03535604 0.001163449 -0.003789512)
(-0.02735267 0.000447764 -0.007235964)
(-0.0191386 -0.0004151891 -0.008848228)
(-0.009990522 -0.001610386 -0.01122654)
(0.001042414 -0.003397988 -0.01287327)
(0.01075139 -0.004430008 -0.009403839)
(0.01569362 -0.004251168 -0.004601833)
(0.0162207 -0.004046883 -0.001116794)
(0.0145511 -0.003797132 0.0006769257)
(0.01183175 -0.002625318 0.002725555)
(0.005633005 0.0003601656 0.007382134)
(-0.006281619 0.005142891 0.01062178)
(-0.01870009 0.009045478 0.005948384)
(-0.0265267 0.01244938 0.002622711)
(-0.0334897 0.01506714 -0.0002051643)
(-0.03749096 0.0164199 -0.002372695)
(-0.03828802 0.01646073 -0.003770706)
(-0.03664055 0.01524264 -0.005012165)
(-0.03314976 0.01319796 -0.006609064)
(-0.02797938 0.01052761 -0.00850826)
(-0.02130984 0.007599697 -0.01046247)
(-0.01297001 0.004745233 -0.01215015)
(-0.003337226 0.002990938 -0.01304202)
(0.007045563 0.002449953 -0.01150584)
(0.01571515 0.004693627 -0.003549814)
(0.01786639 0.01093182 0.004478127)
(0.01540984 0.01481464 0.004735771)
(0.01328234 0.01602301 0.003106246)
(0.01158739 0.01620638 0.003427847)
(0.008275201 0.01601305 0.005818067)
(0.001246081 0.01440947 0.009100126)
(-0.008631692 0.01087801 0.01034221)
(-0.01789114 0.005721768 0.00698364)
(-0.02110613 0.001010049 -0.0002504809)
(-0.01604379 -0.001533987 -0.005058698)
(-0.009585694 -0.002161231 -0.007086005)
(0.0009893458 -0.001855462 -0.01027909)
(0.00420615 0.001619521 -0.001939384)
(-0.0179272 0.004700789 0.01533046)
(-0.03295 0.002566111 0.00672154)
(-0.0363752 0.002163144 -0.001344414)
(-0.02866144 0.00253224 -0.005133412)
(-0.01993948 0.002751196 -0.007190448)
(-0.01033733 0.002870506 -0.01005318)
(0.001389517 0.00222129 -0.01223654)
(0.01155462 0.001404526 -0.009248661)
(0.01698391 0.001185516 -0.004269862)
(0.01725209 0.0005542311 -1.624736e-05)
(0.01481674 -0.0003775746 0.002382097)
(0.0116155 -0.0006597182 0.004543465)
(0.005728724 0.0007717593 0.008331382)
(-0.004812032 0.004621518 0.01105181)
(-0.01581745 0.008782269 0.007066547)
(-0.02322064 0.01210748 0.004068524)
(-0.03032756 0.01519117 0.001359759)
(-0.03516277 0.01729314 -0.001113183)
(-0.03750044 0.01840428 -0.00294977)
(-0.03692889 0.01817902 -0.004262223)
(-0.03448585 0.01715885 -0.005676)
(-0.03028412 0.01553106 -0.007459149)
(-0.02435963 0.013393 -0.009518087)
(-0.01647805 0.01105707 -0.01162689)
(-0.006335884 0.00883485 -0.01321304)
(0.004949169 0.006502924 -0.01308675)
(0.0151187 0.005191415 -0.007423143)
(0.02137754 0.007907932 0.001357881)
(0.01855712 0.01219871 0.00657772)
(0.01482554 0.01386951 0.006869185)
(0.01250044 0.01308093 0.00670614)
(0.008708933 0.01130497 0.009125345)
(0.000380804 0.007988363 0.0118403)
(-0.0104121 0.003498957 0.01032548)
(-0.01888885 -0.0004332131 0.004117614)
(-0.02030673 -0.002820412 -0.00285968)
(-0.01512591 -0.003919963 -0.005776395)
(-0.009750879 -0.003935191 -0.007236384)
(0.0002611955 -0.0009074871 -0.0105823)
(0.003511008 0.005195832 -0.00428984)
(-0.01853773 0.001074108 0.01922013)
(-0.03346872 -0.001263357 0.008657664)
(-0.03642685 -0.0005499688 -0.0003379556)
(-0.02830163 0.001591551 -0.003985523)
(-0.01920793 0.003271438 -0.006007412)
(-0.009300795 0.004984316 -0.00900074)
(0.003107501 0.005922295 -0.01052189)
(0.012959 0.005699508 -0.007324585)
(0.01830667 0.005194812 -0.001983663)
(0.01740006 0.003618514 0.002769015)
(0.01386751 0.001360572 0.005007931)
(0.01009902 -0.0004086078 0.006407339)
(0.004647017 -0.0004226437 0.008946803)
(-0.003985455 0.002435085 0.0110728)
(-0.01293168 0.006797907 0.008410868)
(-0.01972488 0.01021289 0.005679294)
(-0.02654921 0.0137791 0.003266539)
(-0.03200159 0.01680629 0.000589099)
(-0.03538256 0.01899294 -0.001634524)
(-0.03631552 0.02008814 -0.003281946)
(-0.03480063 0.0200226 -0.004570112)
(-0.03153535 0.01928622 -0.005974243)
(-0.02655665 0.01789052 -0.00774146)
(-0.01961382 0.01577177 -0.009784028)
(-0.01017954 0.013161 -0.01166672)
(0.001644325 0.009923697 -0.01231832)
(0.01288846 0.00468044 -0.009235602)
(0.0223494 0.0007077036 -0.001772173)
(0.02081031 0.001329818 0.007468783)
(0.01578129 0.001896194 0.01129524)
(0.01244389 0.0009313302 0.01066031)
(0.008636154 -0.001011857 0.01178173)
(5.577232e-05 -0.003743177 0.01320978)
(-0.01051347 -0.005100541 0.009967153)
(-0.01801424 -0.005149411 0.003009557)
(-0.01862067 -0.005040141 -0.003102388)
(-0.0141638 -0.005415886 -0.005348379)
(-0.009154104 -0.005525234 -0.006736647)
(0.0007188162 -0.001908456 -0.009388054)
(0.004326363 0.004904415 -0.0006793517)
(-0.01814258 -0.006026798 0.01842659)
(-0.03193998 -0.006957847 0.007017256)
(-0.03379719 -0.004233192 -0.001360998)
(-0.02558357 -0.0007532038 -0.003753659)
(-0.01675373 0.002156522 -0.005786352)
(-0.006743094 0.005015705 -0.009001996)
(0.006189376 0.006897878 -0.008211524)
(0.01530977 0.007050003 -0.00382091)
(0.01927169 0.005889941 0.002474596)
(0.01640076 0.003198528 0.007394197)
(0.01158949 0.0001660297 0.008665189)
(0.007525946 -0.002265683 0.008537541)
(0.003013741 -0.003196088 0.009364295)
(-0.003248108 -0.001567748 0.01061262)
(-0.009771261 0.002512177 0.009961828)
(-0.01562603 0.006255206 0.007647765)
(-0.02195765 0.01035117 0.005577851)
(-0.02792476 0.0144897 0.002877864)
(-0.03228023 0.01805198 0.0002082716)
(-0.03454586 0.02052333 -0.00192943)
(-0.03432064 0.02169427 -0.003427573)
(-0.03198788 0.0217449 -0.00463628)
(-0.02802014 0.02099838 -0.006002385)
(-0.02232656 0.01924466 -0.00770586)
(-0.01449987 0.01630975 -0.009557205)
(-0.004160886 0.01234226 -0.01095226)
(0.0073458 0.005495498 -0.01061693)
(0.01598446 -0.004045149 -0.005821125)
(0.01840991 -0.01055359 0.0004709602)
(0.01607761 -0.01302606 0.004220396)
(0.0143901 -0.01397075 0.005448458)
(0.01197559 -0.01465679 0.006934886)
(0.005572063 -0.01469803 0.009745233)
(-0.005363768 -0.01271314 0.01000282)
(-0.01440383 -0.009241628 0.004656416)
(-0.01651433 -0.006758816 -0.001688071)
(-0.01310639 -0.006720236 -0.004577414)
(-0.00834338 -0.007478975 -0.006304519)
(0.001044799 -0.005570909 -0.007309446)
(0.004595715 -0.0006403447 0.002537909)
(-0.01629211 -0.009640214 0.01510987)
(-0.02833038 -0.009306997 0.005134265)
(-0.02935311 -0.005620433 -0.00142422)
(-0.0217217 -0.002641118 -0.002710106)
(-0.01323683 0.0007124367 -0.004848743)
(-0.002206353 0.004169706 -0.007343633)
(0.009774709 0.005276079 -0.004269444)
(0.01783509 0.004182757 0.001740721)
(0.01896896 0.0009352546 0.008855177)
(0.01430763 -0.002663311 0.0123961)
(0.008970124 -0.005419845 0.01168149)
(0.005383082 -0.007177897 0.009764122)
(0.002384336 -0.007933901 0.008886881)
(-0.001089578 -0.006954333 0.009010823)
(-0.005043214 -0.003762829 0.01037538)
(-0.009875618 0.0002925086 0.01069288)
(-0.01608465 0.004836986 0.008644623)
(-0.02252975 0.01003167 0.005989953)
(-0.02800011 0.01514332 0.002834216)
(-0.0316009 0.01928233 3.465295e-05)
(-0.03293679 0.02198099 -0.002050352)
(-0.03181351 0.02307005 -0.003407467)
(-0.02893293 0.02297219 -0.004538275)
(-0.02452932 0.02169862 -0.005850321)
(-0.01849752 0.01896801 -0.007392099)
(-0.01058827 0.01456074 -0.008981544)
(-0.001100387 0.008523482 -0.01019279)
(0.007085018 -0.001317505 -0.00990699)
(0.01153994 -0.0115269 -0.006985519)
(0.01353335 -0.01764091 -0.005098325)
(0.01452864 -0.02046005 -0.003386184)
(0.01479046 -0.02148856 -0.001034887)
(0.01239239 -0.02114774 0.002738844)
(0.004457826 -0.01850048 0.008033552)
(-0.007624168 -0.01299615 0.007993038)
(-0.01344926 -0.00850068 0.001098656)
(-0.01193251 -0.007532816 -0.003426316)
(-0.007595887 -0.008011802 -0.006008798)
(-5.298359e-06 -0.007120475 -0.006852974)
(0.003241256 -0.002682037 -0.00086916)
(-0.01294437 -0.01193973 0.01403916)
(-0.02339756 -0.01237201 0.007909266)
(-0.02492666 -0.008937387 0.0026467)
(-0.01814075 -0.007192269 0.00060959)
(-0.009560999 -0.004476333 -0.001412414)
(0.00302116 -0.002087578 -0.0007936639)
(0.01239999 -0.003640778 0.004015139)
(0.01722122 -0.006739156 0.009169024)
(0.0162122 -0.01030811 0.01245997)
(0.0119869 -0.01252289 0.01265659)
(0.007868828 -0.01338281 0.01085765)
(0.005137762 -0.01348729 0.008738168)
(0.003335471 -0.01312786 0.00722475)
(0.001770227 -0.01195806 0.006609555)
(-0.0001076363 -0.009811041 0.007468022)
(-0.003266581 -0.006586898 0.01013776)
(-0.00833543 -0.002240062 0.01149668)
(-0.0154266 0.003676476 0.009566218)
(-0.0220796 0.01022938 0.006477451)
(-0.02725134 0.01604492 0.002937042)
(-0.03028502 0.02050279 4.889126e-05)
(-0.03090635 0.02317045 -0.001947654)
(-0.02930675 0.02395012 -0.003216957)
(-0.02617556 0.02330801 -0.004321013)
(-0.02170459 0.02114246 -0.005552925)
(-0.01595997 0.01724594 -0.006962347)
(-0.009005171 0.01157316 -0.008541697)
(-0.001803049 0.00420755 -0.01025076)
(0.003609393 -0.005401963 -0.01104619)
(0.007859147 -0.0132363 -0.009796959)
(0.01154909 -0.01832809 -0.008066275)
(0.01471487 -0.02210976 -0.005992281)
(0.0158114 -0.02352649 -0.003139484)
(0.01304545 -0.02186464 0.002097085)
(0.003528283 -0.01727056 0.008424999)
(-0.007773553 -0.01065022 0.005056821)
(-0.009285549 -0.008280649 -0.00244257)
(-0.005232079 -0.007436487 -0.006609369)
(0.001927318 -0.006565197 -0.007493699)
(0.004220303 -0.002066074 0.000616136)
(-0.01007524 -0.01817618 0.01398155)
(-0.01825113 -0.02175882 0.01001981)
(-0.01970204 -0.0191246 0.006039763)
(-0.01448003 -0.01766164 0.003286807)
(-0.006687473 -0.01637129 0.001986003)
(0.003260551 -0.0160179 0.003946381)
(0.009456015 -0.0177493 0.006743461)
(0.01248662 -0.02022871 0.008405626)
(0.0123823 -0.02192703 0.009128588)
(0.0102685 -0.02202267 0.009077524)
(0.007671823 -0.02107253 0.008271118)
(0.005655098 -0.01967191 0.007023251)
(0.0043355 -0.01812288 0.005876253)
(0.003376286 -0.01639725 0.005192312)
(0.002443036 -0.01437191 0.00511771)
(0.0009009078 -0.01166615 0.006116563)
(-0.001941427 -0.008070492 0.008576376)
(-0.006838478 -0.003400049 0.01061967)
(-0.01405811 0.003316672 0.009955886)
(-0.02114546 0.0107747 0.0068819)
(-0.02605134 0.01689501 0.003114838)
(-0.02861262 0.02130923 0.0002532236)
(-0.02881177 0.02368068 -0.001620594)
(-0.02711939 0.02396852 -0.002853848)
(-0.02406703 0.02258241 -0.003950484)
(-0.01994337 0.01956796 -0.005156443)
(-0.01491021 0.01494378 -0.006617942)
(-0.009207746 0.008943936 -0.008455585)
(-0.003430414 0.001701388 -0.01047341)
(0.00192715 -0.006345484 -0.01150331)
(0.007196255 -0.01306504 -0.0101124)
(0.0118746 -0.01815264 -0.008739509)
(0.0157363 -0.02155199 -0.00695316)
(0.0172133 -0.02235667 -0.003506899)
(0.01364639 -0.01937841 0.003116679)
(0.002237432 -0.01296836 0.008024111)
(-0.005752603 -0.007892611 -0.00151165)
(-0.003156975 -0.005016149 -0.00746642)
(0.00290623 -0.004162194 -0.008771858)
(0.004609479 -0.0008665857 -0.0008439344)
(-0.008344906 -0.02791635 0.01307933)
(-0.01493862 -0.03451324 0.00902716)
(-0.01595287 -0.03208036 0.005365143)
(-0.01187801 -0.02975832 0.00273069)
(-0.005447488 -0.02900748 0.001519352)
(0.002077506 -0.02944433 0.002508786)
(0.006730308 -0.03087375 0.003963522)
(0.009307928 -0.0320337 0.004857313)
(0.009679937 -0.03216035 0.005511625)
(0.008509971 -0.03090681 0.005811046)
(0.006852037 -0.0286416 0.00557073)
(0.005485788 -0.02589739 0.004957741)
(0.004635327 -0.02315527 0.00438669)
(0.004139106 -0.0206228 0.004054464)
(0.003762924 -0.01818304 0.00387929)
(0.003227085 -0.01543432 0.00392307)
(0.002125312 -0.01199269 0.004776196)
(-0.0002120138 -0.007983459 0.006918493)
(-0.004966099 -0.003148592 0.009343256)
(-0.0124402 0.00358143 0.009875095)
(-0.01980668 0.01128268 0.007016822)
(-0.02448426 0.01730817 0.003262822)
(-0.02674138 0.02132652 0.000553153)
(-0.02686745 0.02318904 -0.001200252)
(-0.02536077 0.02290802 -0.002408328)
(-0.02265287 0.02091321 -0.003511377)
(-0.01907945 0.01745289 -0.004808168)
(-0.01471164 0.01271353 -0.006459092)
(-0.009632359 0.007070433 -0.008361704)
(-0.004190764 0.0006369308 -0.01011002)
(0.001347328 -0.006538133 -0.01114536)
(0.00720941 -0.01234337 -0.01048894)
(0.01273337 -0.01675189 -0.009138284)
(0.01726177 -0.01945143 -0.007650105)
(0.01923259 -0.01884832 -0.003052147)
(0.01418548 -0.01434009 0.004876531)
(0.002462018 -0.005826896 0.004350665)
(-0.0003525036 0.0003952953 -0.005238367)
(0.004773977 0.003199627 -0.007677117)
(0.005516877 0.005415738 0.0006498173)
(-0.007864193 -0.03795753 0.01127111)
(-0.01331924 -0.04627823 0.006132787)
(-0.01352073 -0.04305354 0.002951848)
(-0.01014939 -0.03959627 0.001008754)
(-0.004836473 -0.03852706 -0.000166549)
(0.001403995 -0.03883468 0.0001261872)
(0.005333015 -0.03976997 0.0009112034)
(0.007726917 -0.04021376 0.001502462)
(0.008427914 -0.03953326 0.002101199)
(0.007880538 -0.03748037 0.002521094)
(0.006894947 -0.03435992 0.002661002)
(0.006067487 -0.0306912 0.002687423)
(0.00562136 -0.02710612 0.00279486)
(0.005433759 -0.0239097 0.002971511)
(0.005293871 -0.02095653 0.003054139)
(0.005084099 -0.01786123 0.002951905)
(0.00474179 -0.01437563 0.002907724)
(0.003941699 -0.01046948 0.003613471)
(0.001886319 -0.006402764 0.005580281)
(-0.002936394 -0.001805133 0.008228372)
(-0.01081024 0.004375388 0.009306657)
(-0.01826801 0.01164334 0.00671112)
(-0.02276651 0.01720619 0.003156589)
(-0.02496557 0.0205687 0.0006574328)
(-0.02523831 0.02176843 -0.001006962)
(-0.02400608 0.02097814 -0.002209722)
(-0.02169808 0.01872901 -0.0033719)
(-0.01855667 0.01535032 -0.004813533)
(-0.01457312 0.01097735 -0.00652961)
(-0.009819543 0.005757292 -0.008325296)
(-0.004640043 -7.624641e-05 -0.01016595)
(0.001272873 -0.006164299 -0.01137791)
(0.008016138 -0.01097974 -0.01127256)
(0.01472413 -0.0143754 -0.009906707)
(0.02000232 -0.01622084 -0.007312177)
(0.02205413 -0.01435878 -0.001226131)
(0.01521948 -0.006975363 0.00659347)